6
Properties=species:S:1:pos:R:3 energy="_JSON [[-2576.7483611041403, -2568.401479133799, -2567.6467832514786]]" forces="_JSON [[[2.600088125851619, -0.24361502774997823, 1.633612386173187], [-0.19025155195617685, 0.4710104236756701, 2.7362975494996538], [2.269706258475502, 0.20126428086871406, -5.684245430055408]], [[-0.5774532881642467, 0.08986594687787128, -2.3394110010871385], [0.4806623100764928, -0.1543009282253877, -1.3207138484066805], [-0.31491218195500653, 0.11458506197618348, 5.000776496507442]], [[-0.25791625531359924, 0.08586777470738106, -0.052079641566593], [1.4118938341745875, 0.08506014011934493, -1.2751946051834038], [-0.26062025292185903, -0.13319331119055786, -0.1464297563609897]], [[1.254032293218589, 0.0369560852546414, 0.7768829759087897], [1.3039951593605414, -0.2392255555331282, 1.159086248590028], [1.1826730970034285, 0.04749724046735832, 0.87812301919681]], [[-1.1599488502221287, -0.015396160196821754, 0.8457251168883255], [-1.396279928291328, 0.3166782023311368, 1.0587060857933133], [-1.1127098460162415, -0.17842057600650194, 0.9139985394416498]], [[-1.858800392685756, 0.04632116341564263, -0.8647322853432865], [-1.6100173743374009, -0.479222826595795, -2.358173266870525], [-1.764137346699903, -0.051732696115196077, -0.96222531775622]]]" pbc="F F F"
C       -0.04899831       0.02061965       0.00873412
N        0.01006040      -0.00472690       2.48334232
H        1.86223994      -0.04771600      -0.82836647
H        1.63525783      -0.05308435       3.30835850
H       -1.52095737       0.05234490       3.48070249
H       -1.53291259      -0.13139162      -1.18107376
6
Properties=species:S:1:pos:R:3 energy="_JSON [[-2576.6651605916404, -2567.9728085724414, -2567.273856075654]]" forces="_JSON [[[-0.7031291757937916, -0.01879954541228185, 1.81207840523097], [-1.4573885871307066, 0.2518570911047715, 0.3648423944074158], [-1.050512730858755, -0.06311332326325379, -3.4599033097778524]], [[-3.331574309872919, -0.20394487666613453, -0.5110057510845486], [-2.5132510807929624, -0.180623339480273, 1.4154748554611627], [-2.98579894901796, -0.1122359011276269, 5.147990213531549]], [[1.094837393272908, 0.07374046652510126, -1.0631469875711936], [1.9013236598934402, -0.8666452473223611, -1.6455200982932887], [1.4908368497861655, 0.5182004473472425, -1.4537912389993597]], [[1.6371226577990854, -0.035980828393616625, 1.0783744914615245], [1.6469895143227344, 0.7947118903993988, 1.6105888139044076], [1.6249319470362757, -0.5552351735708672, 1.2974725848742792]], [[1.5265082844713598, 0.2580120394695928, -0.8084699782602839], [1.1637475627723255, -0.5765961288137367, -0.4301524946346911], [1.3714903356464185, 0.68260361077507, -0.6144471972759423]], [[-0.22376566621888122, -0.07302725552266098, -0.5078301797764685], [-0.7414183479240358, 0.5772954619981211, -1.3152334708450064], [-0.45095561601453027, -0.47022129284504177, -0.9173183312118791]]]" pbc="F F F"
C       -0.00348745       0.00442767      -0.00601359
N        0.01983085       0.00421695       2.45766412
H        1.80211381      -0.12544980      -0.72311393
H        1.57314017       0.08076357       3.36173782
H       -1.78325324      -0.14115822       3.54405131
H       -1.82601432       0.07453352      -0.87067019
6
Properties=species:S:1:pos:R:3 energy="_JSON [[-2572.1929814772307, -2568.4401598780896, -2567.421592251711]]" forces="_JSON [[[-2.172463571015734, 0.44949164226667493, 3.1333664143454523], [-1.8482940680752185, -0.2710952844132509, 0.010043295292814327], [-0.9853577356568102, 0.6488777917584937, -0.6566520910105801]], [[1.713178543026882, -0.04346396558060913, -5.184752825675647], [1.6244149302851745, -0.2316616004645162, -1.6202461425868209], [0.7216383754832182, 0.3141067242796066, -1.296884818462501]], [[0.04903033119141344, -0.19232587758441116, 0.42212785042943984], [-0.1000704969742133, 0.22010355493660683, 0.24963391907503596], [0.2642742007817476, -0.24508852549061697, 0.741451001613579]], [[-1.4831550693211182, 0.09820950878432815, 1.0950251519877816], [-1.6509188416311043, 0.15388187254291613, 1.1128050859440761], [-1.2674910555919945, -0.14158775842988627, 0.3032711416328415]], [[0.6974011744197482, -0.19442714250651866, 0.18712414484017303], [0.8007392172609218, 0.09643641344213022, 0.06101178622706678], [0.7024325637502026, -0.21095916129410203, -0.023966121017445094]], [[1.1960094080410466, -0.11748362115130508, 0.34710327756305065], [1.174131436047076, 0.03233504395611388, 0.18675162066530057], [0.5645033791195567, -0.36535124773613126, 0.9327798532106032]]]" pbc="F F F"
C        0.09696435      -0.05891002      -0.48177175
N       -0.07533339       0.02254704       2.97935259
H        1.82843072       0.39217661      -1.56071665
H        1.97472651      -0.17118828       3.04553414
H       -1.92866130       0.04116632       3.65499970
H       -1.96517593       0.02221813      -1.27143422
6
Properties=species:S:1:pos:R:3 energy="_JSON [[-2576.5056924891587, -2568.667325337618, -2567.1493772178605]]" forces="_JSON [[[-2.8250883736493138, -0.2577731233077681, -0.02356526976689387], [-0.17533670714322244, 0.46204426475525545, 0.29358932268327087], [-2.2642394866178046, 0.19691399307931592, -7.0793743157903375]], [[3.3530168993396465, 0.37634465654902205, -1.163380208764964], [2.1712744324882003, 0.016234897424147826, -0.06912377905184618], [2.95888686655274, 0.34812914764286745, 6.076579509917437]], [[0.8763243451311366, 0.19409244218870045, -0.3026371158275436], [0.6873411168996351, -0.5429383383170421, -1.4788774359909538], [0.7762135752731533, -0.01025475514401476, -0.49552790224105275]], [[-0.03800753405793372, -0.2279156780457475, -0.43468047291802037], [0.09567884784472705, 0.4115208436094774, -0.1762061116273112], [-0.06859533350940474, -0.2433937990033228, -0.36339474750433215]], [[-2.9197568619167575, -0.021298423427394197, 1.438618157924934], [-2.784271261720264, -0.5596216525328424, 1.909454428589707], [-2.8199726289542064, -0.14080896793428002, 1.5406908702963071]], [[1.5534883954564618, -0.06345128895002633, 0.48564199773183686], [0.005301027171857534, 0.21276055650057077, -0.4788337034620713], [1.4176898640685127, -0.1505857546976056, 0.3210401910259546]]]" pbc="F F F"
C        0.04802789       0.02252157       0.02127042
N       -0.01785933      -0.01229043       2.45795500
H        1.65090716      -0.22169035      -1.12418974
H        1.54028061       0.18592369       3.62402925
H       -1.47937384      -0.11464671       3.39410059
H       -2.03553167       0.05301988      -0.91084412
6
Properties=species:S:1:pos:R:3 energy="_JSON [[-2576.4998540094684, -2568.807670623161, -2567.0000997876573]]" forces="_JSON [[[1.477013454546194, -0.49690479948345945, 0.12417926019214645], [2.198910338404963, -0.33905686423143727, 0.011360626763212487], [1.5823841895614341, 0.18425796724051513, -5.199365351746247]], [[2.8403811849187313, 0.5856548065211905, -0.023870091958780013], [2.2298714783735445, 0.21269960294675672, 1.3930172804777994], [2.606877372135817, 0.21307103866531107, 6.350054159842072]], [[0.006274379234325613, 0.4237251600762633, 0.6952242617835322], [0.024277147410344455, -0.5903297264074644, -0.3586055397046569], [0.16276041072972308, 0.1422721253398967, 0.016910311780941795]], [[-0.4340954276470373, -0.5598665552044167, -0.4940503227892212], [-0.4269633176226346, 0.5943951107555978, -0.18656631097714269], [-0.4573911139953437, -0.4620878030079798, -0.36327773845013556]], [[-1.7996618397821529, 0.08560382405023988, 0.705692490422936], [-1.575399021139976, -0.8538586067253876, 1.2093919784721845], [-1.7123404316619388, 0.07642106232252173, 0.8020045477307224]], [[-2.0899259284136043, -0.038210531161260865, -1.00717312141249], [-2.450697496191296, 0.9761548374872072, -2.068597626860278], [-2.1822896104274534, -0.15393439056026484, -1.6063329497006051]]]" pbc="F F F"
C        0.02251960       0.02040933       0.03437079
N       -0.03613229      -0.02299973       2.45161835
H        1.67466065      -0.31727757      -1.24171702
H        1.61837638       0.37470891       3.49859782
H       -1.44900852      -0.17763637       3.56667086
H       -1.61012983       0.19676121      -0.90839669
6
Properties=species:S:1:pos:R:3 energy="_JSON [[-2574.5127749579824, -2568.5328661517296, -2567.7599195780954]]" forces="_JSON [[[-1.0787064706385476, -1.6287524287128348, 0.4353036141601372], [-0.02634224837128281, 0.06378979886495792, 2.0613485077816787], [-0.8603213161141536, -0.4617748718165237, -5.622393899778921]], [[1.882980449792525, 0.13160797456323353, -6.094402982126455], [1.4402127464309624, -0.26133781774957177, -4.855494789447977], [1.714005769828644, 0.08771869467632372, 0.023706578608392242]], [[-0.7729536486004198, 0.695795701350539, 2.1093249411430834], [-0.9953062264043173, 0.06692455306110896, 0.770828437639314], [-0.8641091441011697, 0.23667557449388066, 2.0674084883327444]], [[1.1095832552424763, 0.055334398071815456, 0.6993957706226812], [1.1278339465563523, 0.07782925268407397, 0.6515771634274016], [1.0428282292529127, -0.045138827740097816, 0.7357910287594175]], [[-2.336360602255641, 0.10353668611922823, 1.197092422077564], [-2.2061948323139005, 0.11851057968743998, 1.2409762596828835], [-2.276745849712866, -0.2217561037415743, 1.2082436570565807]], [[1.1954570164596068, 0.6424749474672233, 1.6532889552637844], [0.6597977297699122, -0.06571609443392955, 0.13077122376868802], [1.2443450319874279, 0.40427444567167337, 1.5872550315849674]]]" pbc="F F F"
C        0.04496501       0.08110448      -0.11809579
N       -0.03546895      -0.02274219       2.66395882
H        1.72259047      -0.38001191      -1.83191977
H        1.61613514       0.05196388       3.45872114
H       -1.50254257      -0.00310009       3.64597744
H       -1.87877185      -0.31858072      -1.49253717
6
Properties=species:S:1:pos:R:3 energy="_JSON [[-2576.63805340338, -2568.2941782936173, -2567.300359714886]]" forces="_JSON [[[-1.5480052967539928, -0.17632611393638262, 0.367626121440977], [-1.9449598736863898, -0.02498826313437236, 1.1903031757933655], [-1.3559226891566787, 0.04923686577777443, -6.84598206978003]], [[-3.20479636022129, 0.7386999282695611, 0.27503658474112], [-2.5946240751347163, -0.2041742688351758, 0.8161027781910162], [-3.213857759069539, -0.17040926539114754, 7.575411071360106]], [[1.1078199560071413, -0.04564441569985898, -0.769146772627837], [1.900344049207143, 0.32571783205302374, -1.875246967652368], [1.0353042749539911, -0.05877528060743436, -0.9129291311091088]], [[1.3451877887193386, 0.03644396655697158, 0.7510430229169058], [1.3971098762338856, 0.06153615005831531, 1.3399468715476486], [1.275298008533624, 0.4242639459537268, 0.7916832606942632]], [[1.643345906797868, -0.6197942389386478, -1.0256224560044205], [1.3124579072338312, 0.05987679840135967, -0.6442191987169914], [1.6702008453063875, -0.44898006779716415, -0.901513945472951]], [[0.6564452843101395, 0.06662032952019778, 0.40106349953325476], [-0.07033250979310511, -0.21796691518416086, -0.8268866591626713], [0.5889800405730105, 0.20466325783608583, 0.293338977730106]]]" pbc="F F F"
C       -0.00050529       0.01389280       0.01792732
N        0.02453252      -0.05060020       2.45447767
H        1.74641226       0.08795331      -0.85285404
H        1.55611521       0.17404494       3.41757593
H       -1.78984122       0.33263487       3.56952324
H       -1.84753482      -0.05699292      -1.06302791
6
Properties=species:S:1:pos:R:3 energy="_JSON [[-2571.7207484449955, -2567.744000904443, -2566.98202161667]]" forces="_JSON [[[-0.4314450365124443, 0.3004928568808708, 2.7494950823567135], [-0.26610335162432813, -0.292079089541896, -0.6124090628202852], [0.8106414486149094, 0.609051175078922, -1.186580655185436]], [[2.8114282468570586, -0.03339601675218966, -5.412512310239746], [2.719045516857642, 0.05348783192814523, -1.8323590675781174], [1.715943222074876, 0.28341225610896104, -1.517318992005733]], [[-0.89948941672127, -0.10836262931963957, 1.1462098103468104], [-0.9725901430454035, 0.07519927010544551, 1.0148766710038992], [-0.6870771662424939, -0.27450596228604235, 1.3905655326212614]], [[-2.3428940613050844, 0.023135465578280973, 1.2590963362385863], [-2.4753755220635996, 0.09784297111920529, 1.3746849549400655], [-2.1508332228341325, -0.14583763612393896, 0.49193599639129637]], [[0.5554691916792603, -0.09200231451623776, 0.2685866647140915], [0.6807396293303101, -0.09839563481472462, 0.21300382648766789], [0.5880875063921619, -0.21642566103771993, 0.1669408993334964]], [[0.30692019143929855, -0.08986676322010986, -0.010872726218620576], [0.31428631957209446, 0.16394519543198366, -0.1577959614628325], [-0.2767590668645259, -0.25569308328386364, 0.6544561303887971]]]" pbc="F F F"
C        0.07691498      -0.02139546      -0.46126503
N       -0.08082623       0.01897133       2.97249332
H        1.90476330       0.10470750      -1.75578369
H        2.13392780      -0.10832025       2.87167058
H       -1.95442589      -0.08039916       3.55122065
H       -1.87799717       0.12984712      -1.19032656
6
Properties=species:S:1:pos:R:3 energy="_JSON [[-2576.242110818709, -2568.6670728157524, -2567.968762236079]]" forces="_JSON [[[-1.9723454346499871, 0.35147887196184485, 1.170686471800264], [0.5717933153100851, -0.14438726808006005, 2.4656909819732333], [-1.670720583198284, -0.032132591080945794, -5.6907761679640565]], [[-1.5362309205328597, -0.1214706366445347, -2.1344029747122923], [-3.0458273149616164, 0.21141957831666172, -0.9931456406128729], [-1.8015584749164562, -0.014944804573110319, 4.736771416550347]], [[0.0559578114280118, -0.14360303530286325, 0.8041460855365998], [-0.10904155394805944, 0.16463282771094837, -0.5577495076656966], [-0.011997700246201098, -0.05807240994001613, 0.7404849966312582]], [[1.467279933921513, -0.00482316763680017, 1.2126736742712803], [1.8741312999263071, -0.27251136608310944, 1.1587705962577768], [1.3923614855461395, 0.05984169568510068, 1.3181641394815125]], [[1.3352665093797842, 0.007211730604072271, -1.4503245056261858], [1.460466197370157, 0.07461939500197347, -1.1794458240202383], [1.3992323660541963, 0.0063918236710494665, -1.4352874815915238]], [[0.6500723725676172, -0.08879272894821678, 0.39722124873033354], [-0.7515273859784639, -0.033774255322732184, -0.8941206059322024], [0.6926827162807501, 0.03891612296947438, 0.33066486601882455]]]" pbc="F F F"
C        0.06938226      -0.02234676      -0.04693502
N       -0.04586412       0.01500077       2.54094537
H        1.70588748       0.10620192      -1.37622446
H        1.64366337      -0.07040517       3.18786402
H       -1.70582455      -0.01518878       3.88294458
H       -1.83260345       0.03703883      -1.05246055
6
Properties=species:S:1:pos:R:3 energy="_JSON [[-2572.85805196152, -2569.083651443758, -2567.481177071705]]" forces="_JSON [[[-1.449037406030023, -0.25319861351683964, 3.393453051557359], [-1.4008487236865865, 0.6492995685817605, 0.14922055836061862], [-0.3604259828966926, -0.939792233040014, -0.9947701616676492]], [[3.0393509998688737, -0.47525812445708654, -5.665632827015762], [3.1221281028609873, -0.1413006780759853, -2.374402150573516], [2.3181044686601746, 0.09552265436307855, -0.8137789239518557]], [[0.1777528080553427, -0.015386064764471302, 0.4241197254915775], [0.11668877592500672, 0.018855764181112126, 0.3161911181287835], [0.3475658714982466, 0.3749106153499148, 0.705893854841786]], [[-1.5251232238065675, 0.6495607980981064, 0.836296364032715], [-1.841284409386603, 0.04137549002023941, 0.9017343578773678], [-1.3007325115470127, 0.3617130824928553, -0.03560395039347174]], [[-0.7626568518311182, -0.32564708239234674, 0.6178159695804866], [-0.6458355563493818, -0.19867783654280993, 0.6587011100294183], [-0.9144420853912787, -0.26529136321101954, 0.26203524613539947]], [[0.5197161227702078, 0.41993188980765694, 0.393950437494419], [0.6491553481196112, -0.36955268912402817, 0.3485536456069296], [-0.090069760323437, 0.37293778827334406, 0.8762236629217117]]]" pbc="F F F"
C        0.05206996      -0.00759876      -0.42808340
N       -0.05302112       0.06792772       2.92078465
H        1.80820453       0.19500198      -1.51082664
H        1.87539855      -0.70290157       3.07744805
H       -1.74447524       0.10773011       3.68914075
H       -1.82382758      -0.45685288      -1.35817961
6
Properties=species:S:1:pos:R:3 energy="_JSON [[-2575.701268303033, -2568.704025635638, -2567.8732627114127]]" forces="_JSON [[[1.1253168913207274, -0.2046994490086629, 3.460556383568717], [1.0792534199383967, 0.013222186392664646, -2.1114882480753234], [0.2691774243807446, 0.09631586690489975, 4.111126724901869]], [[1.0169284111635328, -0.19777686682549603, -1.8855519278440553], [1.0009498724137074, -0.04807765979898941, 3.9285653889472045], [1.4671574825857259, 0.011410396428357976, -1.7483982683400616]], [[-1.432590831063411, 0.011681285994527104, 0.4436656798240019], [-1.4102693131198114, 0.1846979757071103, 0.3223463386076842], [-0.23059763441356562, -0.23113315492207476, -0.42021488845036503]], [[-1.7454839265483273, 0.24154614440333444, -1.474776676812482], [-1.8435864944994016, -0.1419015059635809, -1.4995336157678483], [-1.5685526308990767, 0.27383656165040593, -0.9313213217443387]], [[0.6118185752677116, -0.015205489861297185, -0.5558474302498029], [0.7300031622878782, 0.23382817276571016, -0.5469220884413173], [0.30174458164669504, -0.25293384651745987, -0.05187419543655012]], [[0.4240081587189714, 0.16445459298885817, 0.011963631563444318], [0.44364935297923025, -0.24176900583446706, -0.09296233298880902], [-0.23892976752868236, 0.10250455741558233, -0.9593191393868716]]]" pbc="F F F"
C       -0.01600052       0.01096863      -0.18122321
N       -0.00164201       0.00962488       2.60351837
H        2.02828345       0.01242641      -1.09973711
H        1.81589645      -0.13197892       3.85181550
H       -1.70220241       0.00710234       3.65307116
H       -1.92865755      -0.15187516      -1.03350674
6
Properties=species:S:1:pos:R:3 energy="_JSON [[-2574.770521686224, -2568.54053160535, -2567.270546079991]]" forces="_JSON [[[-1.0463276163156299, 0.6334489234493127, 4.709614431413553], [-0.9401895195961235, -0.10888263932561566, -0.49238226348172065], [0.42014958107127853, 0.14573151163292342, -1.1337932448979935]], [[3.7174864974581103, 0.02376755937361424, -7.168818213730862], [3.4603659037130483, -0.4869508664543618, -1.7164575176851822], [2.6828162483094173, 0.43420971556043864, -1.0510841704257619]], [[-0.16790880911437392, -0.049441767679658265, -0.8258308565341065], [-0.12017292459927043, -0.12494417286969686, -0.9869278338956811], [-0.11724660978803708, -0.010381886841969773, -0.46295040464008036]], [[0.2841197527157312, -0.13303521291035267, 1.104209002171818], [0.16336532032851162, 0.6170867038473542, 1.0389397190564718], [0.7887689189025291, -0.14071998663027466, 0.19896192364183612]], [[-3.547115872266256, -0.029511316152862205, 2.611002621581447], [-3.401589262535216, -0.15430555416473968, 2.613253005019135], [-3.821815035548762, -0.233201766154639, 2.17797115998536]], [[0.7597343466169981, -0.4452276146404868, -0.4301661003386674], [0.8382147682933803, 0.2579981616515369, -0.4564278301538182], [0.04733451624780118, -0.19563641747593663, 0.27089582479295765]]]" pbc="F F F"
C        0.01057216      -0.04047080      -0.22199023
N       -0.03738170      -0.01922726       2.65637017
H        2.02765151       0.10871247      -0.60910948
H        1.77268288       0.30453529       3.05020458
H       -1.44778521      -0.06743142       3.58737551
H       -1.95904719       0.40323693      -0.90576690
6
Properties=species:S:1:pos:R:3 energy="_JSON [[-2575.9648864367687, -2568.8571600108044, -2567.745425421649]]" forces="_JSON [[[-0.7162178630190403, -0.1706636920555053, 1.129091113603767], [-0.7395979047320003, 0.15804249681888397, -0.43073209762408354], [-0.4856392765910416, -0.09131277743871634, -2.161257913220812]], [[1.2038789472209677, 0.29854996235304804, -5.422743799629961], [1.0467412297165108, 0.46735865272841776, -2.672424211612281], [0.9294192443284448, 0.4635381710518587, -0.6334353177453363]], [[-0.36755809292109526, 0.4103589164898971, 0.25594941474677807], [-0.10247843446394773, -0.6612344921098147, -0.4508658183682863], [-0.044451467575212615, 0.3732942577175244, -0.5607781373708322]], [[1.8356407633772132, -0.026812134963810033, 0.8149272453674595], [1.7609155159983036, 0.9573435911695057, 1.0159515216180308], [1.8334094279250917, -0.1837999992446712, 0.8753746669935875]], [[-3.139461769726857, -0.2355482058624003, 1.8771844198985999], [-2.8983414838579824, -1.2984385898566002, 2.039320873043968], [-3.0223166584904835, -0.21786323971986107, 1.9582853001608274]], [[1.1837152939280169, -0.2758855806692442, 1.345593238697834], [0.9327635263658317, 0.3769297018200051, 0.4987497329426525], [0.7895798188595196, -0.34385695659429355, 0.521814122323361]]]" pbc="F F F"
C       -0.00833299       0.01012725      -0.06006094
N       -0.00952672       0.00509720       2.55783991
H        1.86984436      -0.32664150      -0.97730660
H        1.56409384       0.19682767       3.40518613
H       -1.36505182      -0.26484615       3.58525448
H       -1.83729935       0.20325164      -1.44947346
6
Properties=species:S:1:pos:R:3 energy="_JSON [[-2572.523000072311, -2568.4125906401223, -2567.1940471930416]]" forces="_JSON [[[-0.071107490691598, 1.1399103694057604, 3.1099101806902247], [-0.311298506978888, 0.49728575919479723, -0.18389904876961904], [-1.1569610376289223, 0.8808904193855996, -1.0486215380060424]], [[-1.4130367133086008, -0.2916681972818102, -4.620769184447987], [-1.3936322582975305, -0.5873473560958484, -0.7586486114396854], [-0.4521148219933152, 0.32830019466773497, -0.4123181378624915]], [[-0.4863494943386071, -0.13612806153825655, 0.02623492657831736], [-0.46138302754200483, -0.10435275624372971, -0.17217637422359586], [0.11815166121654389, -0.32252321275937673, 0.6779912771270874]], [[-1.4700636609550741, -0.356368761970945, -0.09081562501542051], [-1.585045465259208, 0.08440380095952581, -0.2544655766711174], [-1.4353255775626574, -0.32931518018437067, -0.36871185661828976]], [[2.2218604398722697, 0.3742412147142784, 0.6248201859875117], [2.3877194136255673, 0.3885707421421702, 0.5929202524445614], [1.9143769722883504, 0.04521447545420632, -0.12087987697788158]], [[1.2186955588512127, -0.7299868354431065, 0.9506114888420076], [1.3636398444520645, -0.27856046207099466, 0.7762679980890587], [1.0118725315659212, -0.6025666965637936, 1.27253877176722]]]" pbc="F F F"
C       -0.04227498      -0.09717931      -0.43098806
N        0.04698563       0.04419933       2.90676409
H        1.93180723       0.06363453      -1.16522118
H        1.96237640       0.21553610       3.66256602
H       -2.07903459      -0.30295984       3.20806479
H       -1.94213598       0.56779718      -1.52211958
6
Properties=species:S:1:pos:R:3 energy="_JSON [[-2575.603535538116, -2568.5979411453923, -2568.1578341735003]]" forces="_JSON [[[-0.14814135392121455, 0.23891561759654695, 1.1930188743070451], [0.5535181337290518, -0.040834799344219255, 3.0843042458067345], [0.014142748323704489, 0.019921199648092143, -5.233189131831453]], [[3.274729678659729, -0.029406552232244306, -4.153005081741074], [2.0591688740046674, -0.013551907022827513, -3.1386182160803235], [3.071433249845107, -0.07321936806280704, 2.2591890493017837]], [[-1.1594862562869328, -0.12782885422676257, 1.4638295273931108], [-0.7714923959933598, 0.028523542044179197, 0.04952340190351637], [-1.2153839305033691, -0.04584986182990186, 1.4237389600563977]], [[-1.8081681259081672, 0.012127389816503667, 0.41938494050780767], [-1.3540859191198715, -0.02270209669522627, 0.26477761182887255], [-1.8545690187491108, 0.04869862412847002, 0.5240481789162776]], [[-0.4975415464295526, -0.02107251431857088, 0.17110125149538472], [-0.2883130306812423, 0.031822381030285014, 0.39581169779838365], [-0.41462566525688044, 0.044898823121955, 0.15704846408637185]], [[0.33860515485942244, -0.07273500500124899, 0.9056745697489188], [-0.19879484559700653, 0.016742852776400877, -0.6558085373640463], [0.39901448051441646, 0.005550610205599699, 0.8691568602763955]]]" pbc="F F F"
C        0.02054772      -0.00965918      -0.09459930
N       -0.07181417      -0.00136364       2.61965184
H        1.94802538       0.06916382      -1.37832606
H        1.98234824      -0.01040646       3.07515913
H       -1.50058754       0.03038940       3.84997897
H       -1.67664768       0.04480213      -1.43076760
6
Properties=species:S:1:pos:R:3 energy="_JSON [[-2575.604973661026, -2569.1857380339475, -2568.159149845075]]" forces="_JSON [[[-0.6890717624454268, -0.3427467311498234, 2.3461104497250935], [-0.29210357980905344, -0.2430250844255637, -2.2787948687317043], [0.7527872741666739, 0.1506594976131574, 2.973091221504049]], [[1.3164117248093585, 0.1701662675181299, -5.4780101691818945], [1.1607896827278672, -0.0946584200465008, -0.5882453325582876], [0.5270115012423268, 0.030014999314066683, -3.6396618707133888]], [[-0.9848053440753703, 0.3827447796994971, 1.1111832860300952], [-1.0825977019757838, -0.19882477814575453, 0.9450331502117041], [-0.7002610933955771, 0.2273472317336156, -0.21280790435040847]], [[0.641968815279303, -0.10705539328159186, 0.5414798068507773], [0.4746132140886076, 0.6541078243670027, 0.5641414673937859], [0.8111230905356721, -0.19766121834169706, 0.5279176411271517]], [[-1.4563708804732756, 0.06614412988102553, 0.7583193534034578], [-1.3169151358564835, -0.548592868889613, 0.8400080000774632], [-1.3427959059602965, 0.17970794771674417, 0.8858211265066289]], [[1.1718674469054113, -0.169254957465794, 0.7209281577356527], [1.0562162419656411, 0.43099060599963424, 0.5178575836070384], [-0.04786214544800403, -0.3900673695795687, -0.5343803505159178]]]" pbc="F F F"
C        0.03144708       0.02161902      -0.16799564
N       -0.02598496      -0.02142843       2.65880036
H        1.87841000      -0.26512500      -1.41837866
H        1.63019059       0.28766857       3.46031650
H       -1.57292315      -0.12616934       3.60058650
H       -1.94906110       0.14392546      -1.19648680
6
Properties=species:S:1:pos:R:3 energy="_JSON [[-2574.245161373217, -2568.6158005366597, -2567.725442179991]]" forces="_JSON [[[0.8591566678537782, -0.7531519070332401, 2.0447876449016653], [0.952418326330067, -0.5520296697140391, -2.475723828085394], [-0.08339262504000347, 0.17827227383315972, 3.6406414813996855]], [[1.3765924746375497, 0.3165856835440976, -4.542427540952164], [1.416666715129491, 0.24639957112577804, 0.2197059962664179], [1.6806554682418149, -0.044407657208408766, -3.234048623770442]], [[-1.6959482795112324, 0.5947270899326207, 1.881657975366024], [-1.7663060959137333, 0.12399150147727282, 1.7976291476080863], [-0.8289492838854858, 0.18308080173248134, 0.3997845633594779]], [[-0.42492790430777266, -0.2627947165313593, -0.20876646604127344], [-0.593984218495512, 0.21466725985581642, -0.20746140691586196], [-0.49352514261573405, -0.23694034149326046, -0.16950122070776594]], [[-0.5652462505566654, 0.11661911472064782, -0.056461766703295814], [-0.47446355134486773, -0.41952371868836646, -0.05258740643899038], [-0.5521058616563066, 0.2389523529972831, -0.1041805080313891]], [[0.4503705707435472, -0.011985972129373485, 0.8812115139994415], [0.4656688242945551, 0.3864945117153792, 0.7184383139079807], [0.2773196218683515, -0.31895851831757305, -0.5326850798004646]]]" pbc="F F F"
C        0.00427656       0.04847455      -0.24186699
N       -0.03386678      -0.03480704       2.73710422
H        2.05169602      -0.38417126      -1.74530463
H        1.71870251       0.28957186       3.56632887
H       -1.55455474      -0.07102510       3.86335521
H       -1.79621999       0.07204773      -1.44674811
6
Properties=species:S:1:pos:R:3 energy="_JSON [[-2575.7136467725104, -2568.262788846088, -2567.328316443303]]" forces="_JSON [[[-2.6153047451787685, 0.28685177807418233, 3.2350554458646923], [-1.7308686793369323, -0.23109968489029292, -1.2504240605240609], [-0.4116813909163983, -0.040468533793175915, 2.3333755108032297]], [[5.822370536823313, 0.24941731626773245, -6.802770353951142], [5.076424210615948, -0.10208767864574696, -1.8357169553194805], [4.316083049601605, 0.1747334302289111, -3.7850524234046645]], [[1.5980198645710555, 0.001189299074839911, -0.6634277315908024], [1.5162523048139873, -0.5428050024180737, -1.0670028440780912], [1.614825630122643, 0.37263302050427377, -1.7669918233941413]], [[-0.21268055496118984, -0.26080284146922167, 0.7114150495153888], [-0.2061356671204064, 0.7583384013890248, 0.6538411525690662], [0.22328810600931134, -0.5075662291193274, 0.6018102194227085]], [[-4.988830688416207, 0.04219754665449047, 3.248851629696711], [-4.813752489648535, -0.5272591250546962, 3.4671415442932707], [-4.802759080835644, 0.3346077990311708, 3.466161933606973]], [[0.396440281322091, -0.3188523938265575, 0.27088113063266317], [0.15808385815897205, 0.64491036847899, 0.032156265005864645], [-0.9397595793504707, -0.3339383983955344, -0.8493251861604677]]]" pbc="F F F"
C        0.02902041      -0.01072427      -0.07727254
N       -0.04220604      -0.02224078       2.57827652
H        1.71417265      -0.06576208      -1.00551122
H        1.75546190       0.30222984       3.17782086
H       -1.43711204      -0.04531768       3.43703328
H       -1.79163953       0.24557500      -1.12469884
6