6
Properties=species:S:1:pos:R:3 energy="_JSON [[-2576.803174947978, -2569.457806942537, -2567.3044569365816]]" forces="_JSON [[[-0.00014633261163459857, -0.00024373339737457248, -0.4212434796709771], [-0.0001596642967328649, 6.520071036730542e-06, -1.597089234419073], [-0.00017380198373469018, 5.847078495244365e-05, -4.711736921233864]], [[4.0146894951174995e-05, 9.075276666304978e-06, 0.5916930179458947], [-2.5702344901867116e-05, 5.181596302353134e-06, 2.5610778514106283], [0.00010712233334515552, -1.459984555449394e-05, 6.273181932375694]], [[-0.19670800272111397, -0.4668525205404976, 0.08829938612203433], [0.009918013970600095, 0.7145198711627918, -0.6167683303743077], [0.16825548245169133, -0.26386222006534377, -0.7359134800952046]], [[-0.3281478107831999, 0.5473819612357179, -0.1735723194515694], [-0.48247186870534736, -0.660894349510406, 0.13466708104527608], [-0.38053521337373786, 0.420103321677759, -0.044824263864164604]], [[0.3281124359528613, -0.5473411441237889, -0.1735502782111277], [0.4824446572973946, 0.6608916283696108, 0.13471932694854527], [0.3804807905578325, -0.42009515825537314, -0.04480984181794967]], [[0.19684977415654756, 0.4670457215369618, 0.08837312903758615], [-0.009705220760409982, -0.7145280345851777, -0.6166077830673867], [-0.16813493591446085, 0.2638124231887903, -0.7358998743912283]]]" dipoles="_JSON [[-2.4490247418e-06, -0.0006005552894614, 41.305353610010236], [-0.00021769108815999997, -0.00048980494836, 14.5082946842834], [-0.00029932524622, 5.442277203999999e-05, -26.85584205026268], [-1.6326831611999998e-06, -0.0011711780543008, 37.67182186069526], [0.00027211386020000003, 0.0005442277204000001, 4.6438951381732], [-7.891301945799999e-06, -0.001076210317091, 37.37109005793189]]" smooth_nacs="_JSON [[[3.4043249812740677e-06, 7.823535101594956e-06, -0.013174649003199862], [4.720091490776227e-06, -2.1755661699683225e-06, 0.07752521614530045], [-1.2918157474550444e-06, -4.358590932769313e-06, -0.14682499491554368]], [[8.239805072662964e-07, -3.223650694888464e-06, -0.03867045725068477], [2.839470562401216e-07, 9.202168804287953e-07, 0.06218790161342535], [2.3463423866587991e-07, 5.685020722531256e-07, 0.10210133520887563]], [[0.012557200325149452, -0.05574462540967711, 0.0036886038183344735], [0.014363835325114182, -0.056938115566444326, -0.0050591582810440286], [-0.0186454714114822, 0.006684588736230013, 0.024282683273539957]], [[-0.0030398586352288607, -0.026369332736477326, 0.00353076081017527], [-0.012618517872942872, -0.019188124560135408, -0.005404089466967831], [-0.005748903299365553, -0.012248208268610474, -0.002358014664933799]], [[0.0030392971661024606, 0.026368908935261726, 0.0035306528353432707], [0.012618751750626774, 0.019188368909954408, -0.005403817191455231], [0.005748874019752253, 0.012247678070207475, -0.002357948192298199]], [[-0.01256010484813025, 0.05574176407662911, 0.003685826165781274], [-0.014367594821615082, 0.05693909296572033, -0.005062718806978029], [0.0186464210205622, -0.006680422326391513, 0.02428228760308996]]]" pbc="F F F"
C        0.00000000       0.00001134       0.02441904
N        0.00000000       0.00000000       2.45746222
H        1.79562721       0.36887076      -0.98595894
H        1.64114210      -0.40367196       3.46218424
H       -1.64114210       0.40364550       3.46218424
H       -1.79562721      -0.36898792      -0.98595894
6
Properties=species:S:1:pos:R:3 energy="_JSON [[-2575.565353306819, -2569.070083291525, -2568.017901685016]]" forces="_JSON [[[-0.6164635626052374, -1.4404522068209462, 2.700068280951429], [-0.7471599550020555, -0.40885684677090806, -1.484994560498721], [0.398960057698511, 0.2736297549499654, 2.694851854046896]], [[1.3340311114587315, 0.09630198908684388, -4.780745051801911], [0.8916416466677115, 0.0018863383375338882, -0.20812128355871495], [0.5852847313730338, -0.4575135653311309, -3.031105943259206]], [[-1.1434260833132492, 0.21518944677442875, 0.38428766653041524], [-0.9056908965936905, 0.5209134247201266, 0.04532168840153996], [-0.6500587668636408, -0.46861037749424195, -0.5210875777310239]], [[0.7175158471783841, 0.1224584107532177, 0.32021024308339724], [0.6895343563806227, -0.8273710222242293, 0.36452674207516444], [0.929732175519901, 0.4432411818599397, 0.40048661768465754]], [[-1.6335851747652343, 0.12724326472762046, 0.710318429774895], [-1.3888022333859262, 0.7569125236123032, 0.7188900232799955], [-1.4731603191800915, 0.06371224635229272, 0.9037480020658677]], [[1.3419305831874004, 0.8792577349084377, 0.6658713160249549], [1.460477081933338, -0.043484374136573654, 0.5643782066429743], [0.20924620316347955, 0.1455385827505388, -0.446882068244011]]]" dipoles="_JSON [[2.0449337546059785, -1.0543837922504977, 37.435692065254244], [-0.9100848054389, -3.4696694086381603, 27.92573932579704], [-2.0507861073973, -0.7869804950844199, -16.11273242679464], [2.7782844174390213, -1.4036079175846727, 30.956843098064716], [1.08690439179686, 1.99347892843918, 2.36300955059078], [-1.474587729562402, -5.679072317829201, 25.327172779440968]]" smooth_nacs="_JSON [[[-0.014842807373028927, -0.038200356182433295, 0.05151976856438105], [-0.029608526956149073, -0.013914966724137034, -0.04549058342955712], [-0.004123027679049543, -0.014905359109945964, -0.10564717815549392]], [[0.002663252317418351, 0.003589232734143934, 0.03430456543059537], [-0.004936324370158112, 0.01553178519116944, -0.01525495144547354], [0.020858225784078747, -0.0038200831092399037, 0.08532991045550123]], [[0.00433585892762332, 0.028637431228235474, -0.00978020329007442], [0.002370796498528656, 0.04784392960285412, -0.006875835865629817], [-0.013424964761351767, -0.0017369672159320288, 0.017981479659245368]], [[-0.0044460937821989175, 0.022127244574973594, -0.007278283604112266], [0.00805521324650082, 0.03148511299210708, 0.001176387956960223], [-0.007725432212500018, 0.010150386193827339, -0.0010349497683169364]], [[0.004662465071071514, -0.0072897601356786655, -0.007715568577774857], [-0.005499424994525015, -0.021097011904806853, 0.00784542658207722], [-0.0034545940068166554, -0.0075422321648529935, -0.00515978860636768]], [[0.004951557660006909, -0.016625254988452496, -0.0036516208592585328], [0.02277763784731476, -0.06352004367008715, 0.013210615958667533], [0.00782005405690303, 0.01760151907160032, 0.00842476617517311]]]" pbc="F F F"
C        0.01399643       0.08407945      -0.16139602
N       -0.04063684      -0.03205253       2.62309025
H        2.04366949      -0.11333760      -1.00222288
H        1.65966884      -0.16944732       3.38915734
H       -1.36758520       0.25999974       3.82517421
H       -1.92278504      -0.54725374      -1.21516154
6
Properties=species:S:1:pos:R:3 energy="_JSON [[-2575.6435899142803, -2567.232928757523, -2566.2086304086297]]" forces="_JSON [[[0.18457634071356172, 7.978384811731639e-08, 0.06546574948076471], [1.0689158060571662, 9.03146629950113e-08, 1.1730756334185113], [0.3130563639326324, 1.4993485781937701e-07, -7.588581392809212]], [[8.635322622525724, -2.2463017264953852e-07, -2.8840554946828147], [7.407598318515806, -8.17702808978635e-08, -2.326553610829488], [8.460244423758052, -8.5988049130532e-09, 4.725968487593125]], [[-0.11594536025973895, 1.41771435433567e-07, 0.07956561262553574], [0.5075607868377368, 6.6940063563642e-08, -1.2563425417537732], [-0.18416816959427124, -8.58519920907685e-08, 0.0238936298266591]], [[-2.1363894074928393, 4.3266138644793e-09, -1.2383340319706762], [-1.622940071974138, -9.4967813754923e-08, -0.8982812302081702], [-2.1642103509836796, 4.8164192076279e-09, -1.1641312436244586]], [[-6.443089963632353, 2.0218076108856102e-08, 4.062064556363151], [-6.296121149279821, 1.101517793925296e-07, 4.66362715197349], [-6.3598502667050445, -1.9047985566890001e-10, 4.153603732716033]], [[-0.1244660684319679, -2.1497012282633e-08, -0.08469033708526774], [-1.0650109690159535, -9.064119989044371e-08, -1.3555362871637504], [-0.06507390520624584, -6.00827887595616e-08, -0.15076453364785483]]]" dipoles="_JSON [[5.247378372770352, -0.0, 41.23157646754965], [0.0, -0.9926713620095999, -0.0], [0.40534080615392, 0.0, 32.84724502414628], [6.914371282147529, -0.0, 36.36059061214356], [0.0, 0.7302175438467, -0.0], [5.34811193056393, -0.0, 41.384265268898936]]" smooth_nacs="_JSON [[[-5.588272168000044e-09, -0.010962428204271086, -4.3744302178800345e-08], [0.0034655150138376218, 7.481698726019982e-09, -0.06599719548925184], [5.875953663999488e-09, 0.0044931208069116085, -2.6235737866237715e-08]], [[7.376333810250058e-09, 0.029881798715441738, 3.559803551620028e-08], [0.0018809246482544655, -4.09659238334999e-09, -0.09942178336525176], [4.5026706431996076e-08, -0.010196597727231112, 7.11188391526338e-08]], [[1.022672351895008e-08, 0.07763735832923062, 7.1235015849500565e-09], [-0.0007936952708189981, -4.802184046499988e-10, 0.005299721519245487], [1.306287362047886e-08, 0.020019419303934253, -8.793791897599233e-09]], [[-2.5323403690500196e-09, 0.0378334989263253, 2.3932517365500188e-09], [0.006779640222107084, 4.37536176770999e-09, 0.006176780624743185], [-2.5584338903037768e-08, -0.021082823876606163, -1.9549723197438295e-08]], [[-1.9633133192000157e-09, -0.04388892344801535, 2.2152182869500173e-09], [-0.011993078456156072, -4.7702850622199886e-09, 0.006358278910734584], [-3.5714957311996885e-08, 0.03012395164057337, -2.0932473241598173e-09]], [[-7.0848658537000555e-09, -0.08711043782012569, 8.410225978500067e-10], [8.669960161416279e-05, -2.921877614429993e-09, 0.006025312458626686], [-2.6656352255997676e-09, -0.023426704527357955, -1.687964618751853e-08]]]" pbc="F F F"
C       -0.00116974       0.00000000       0.02441904
N       -0.03730130       0.00000000       2.45746033
H        1.80434263       0.00000000      -0.99180575
H        1.89851902       0.00000000       3.61819625
H       -1.38375385       0.00000000       3.30619113
H       -1.78691180       0.00000000      -0.98011212
6
Properties=species:S:1:pos:R:3 energy="_JSON [[-2575.3760176908545, -2567.4455978836927, -2563.8552858061003]]" forces="_JSON [[[9.35528205413826e-08, 3.02318742354497e-08, -8.17289195577754], [-7.09945633485943e-08, 5.5348003775791797e-08, -7.381856326592551], [-1.40955093194986e-07, 3.62455953929964e-08, -16.741437783187337]], [[7.43959893426818e-08, -1.30342644093433e-08, 10.134888891983115], [1.014713402556183e-07, -2.64222771220717e-08, 10.365804899869728], [1.0438296090655721e-07, -1.2419286589612281e-07, 18.526070762357215]], [[0.440966308155094, 4.898706505276865e-06, 0.30927397822720715], [0.658799071098048, 2.7494678709487606e-05, -0.9996056288608439], [0.33764459215869214, -8.561824609645481e-05, 0.2398799898943906]], [[0.7976860972886289, -9.04417402701504e-06, -1.2902724463299948], [0.47002809184857763, -3.993138060018962e-05, -0.49236865777774436], [0.7426972840978128, 8.560844998959184e-05, -1.1321904929695794]], [[-0.7976860972886289, 9.04003789300623e-06, -1.2902724463299948], [-0.47002809184857763, 3.992049603700854e-05, -0.49236865777774436], [-0.7426972840978128, -8.559375582929738e-05, -1.1321904929695794]], [[-0.440966308155094, -4.911795192502113e-06, 0.30927397822720715], [-0.658799071098048, -2.7512638238736387e-05, -0.9996056288608439], [-0.33764459215869214, 8.56917168979271e-05, 0.2398799898943906]]]" dipoles="_JSON [[0.0, -0.0, 48.767822887991386], [0.0, 0.0, 2.7211386019999996e-05], [-0.0, 0.0, -30.6421975694016], [0.0, -0.0, 47.35435193142991], [0.0, 0.0, -0.0008707643526399999], [0.0, -0.0, 52.45331260200067]]" smooth_nacs="_JSON [[[-1.95875022772e-09, 5.49883935376e-09, -4.5310139008916e-07], [2.9708486887499838e-09, -8.704667099999953e-10, 0.0732025245779996], [1.7561404332999695e-10, -1.0067131108999824e-09, 3.769854287417334e-06]], [[3.2757554768e-10, -1.19431013736e-09, 1.77983947990788e-06], [-3.136813158749983e-09, 3.8747623199999785e-09, 0.15660767261137415], [2.3459186253999593e-10, 8.449529177199853e-10, -8.889407391262544e-07]], [[-3.1655455398688e-07, 0.082620760739812, -2.7830223998759997e-08], [0.0007804580812649958, -1.5215419387799918e-06, -0.005736769361137469], [7.332100054143972e-07, -0.02410726936401658, -9.116515535892941e-07]], [[4.999636368332e-08, 0.05112014598924, -3.15582901962e-08], [-0.011279508474937439, 7.794745724287457e-07, -0.008691559293899953], [9.16396563236384e-08, 0.030538939087368468, 2.505933233461056e-07]], [[-4.905268964116e-08, -0.05112014598924, -3.141373728548e-08], [0.011279508474937439, -7.817722489049957e-07, -0.008691559293899953], [-9.18573596831384e-08, -0.030538939087368468, 2.5066061347540566e-07]], [[3.172353515664e-07, -0.082620760739812, -2.626199977984e-08], [-0.0007804580812649958, 1.5208082234062416e-06, -0.005736760893562468], [-7.334073897936771e-07, 0.02410726936401658, -9.109768051162741e-07]]]" pbc="F F F"
C        0.00000000       0.00000000       0.15477613
N        0.00000000       0.00000000       2.31441562
H        1.64541099       0.00000756      -1.07575116
H        1.35222943      -0.00000756       3.76967859
H       -1.35222943       0.00000756       3.76967859
H       -1.64541099      -0.00000756      -1.07575116
6
Properties=species:S:1:pos:R:3 energy="_JSON [[-2577.1797658677688, -2568.68244154685, -2567.728686051933]]" forces="_JSON [[[2.0876592181311442e-07, 1.0936264856190131e-07, -0.01945672812574751], [3.8765371769416424e-07, 1.9162273480291342e-07, 1.3251411444805845], [1.124647490685091e-07, 9.43147399640582e-08, -7.681345082519966]], [[-1.0533536018490171e-07, -5.70078996609065e-08, 0.016949931590920925], [-1.549145454747211e-07, -9.37433003970515e-08, 0.6715884328358172], [-9.42603171481528e-08, -3.76333771985841e-08, 7.633371370299357]], [[0.0010884808083751574, -2.9687646076395702e-08, 0.0008861667113876281], [0.8252430901223281, -1.4176735372237409e-05, -1.4021167752971824], [-0.06276093553026633, -1.8232187556468053e-06, -0.05926481383650344]], [[-0.004818106314920967, 6.31848892661694e-08, 0.0003674356415853081], [-0.1902529125265745, 2.8728171831983497e-06, 0.4037547077797768], [0.05595345760273937, 1.3063380615852688e-06, 0.08325357474536518]], [[0.004818051892105062, -7.15115800996956e-08, 0.00036727237313759187], [0.1902529125265745, -2.906640963283556e-06, 0.4037547077797768], [-0.05595345760273937, -1.3268554631816048e-06, 0.08325357474536518]], [[-0.0010885433946134487, -1.4367623399025602e-08, 0.0008859272509976444], [-0.8252430901223281, 1.41126525065088e-05, -1.4021167752971824], [0.06276093553026633, 1.7870003716617618e-06, -0.05926508595058297]]]" dipoles="_JSON [[-0.0, -0.0, 41.189753111464626], [-0.0, -0.0, 0.0], [-0.0, 0.0, 32.80215575751114], [-0.0, -0.0, 33.90358966887338], [0.0, 0.0, 5.442277203999999e-05], [-0.0, 0.0, 41.32869308791345]]" smooth_nacs="_JSON [[[6.745046255999909e-10, 3.9658373819999466e-10, -6.456720510208714e-07], [-8.787208649999875e-11, -2.5507217519999637e-09, -0.06672738812024905], [7.816114319999826e-10, -2.664874385039941e-09, 4.552869066479899e-07]], [[6.923040532199907e-10, 7.432041707999901e-11, 3.1999186433915573e-07], [2.2964831459999672e-09, 1.5636368909999778e-09, -0.09933421871279859], [4.5151203887999e-10, 7.241997940799839e-10, -2.0409437712383547e-07]], [[1.4915202123041798e-07, 0.08450837227076287, -1.0122659395757864e-07], [-0.0003651199809839948, 2.4784790879999647e-09, 0.005488514835224921], [1.3906788106511693e-07, 0.02207760680731151, -7.795624183535827e-08]], [[-3.0149388725273594e-07, -0.04099367438922545, 1.7660904355223762e-07], [-0.008634582129479876, -8.030049959999885e-10, 0.006518427787079908], [-3.564691402439921e-08, 0.025324315546319438, -1.5572468662799654e-08]], [[3.0075130762325597e-07, 0.04099367438922545, 1.7708931582731763e-07], [0.008634582129479876, -1.3847668334999804e-09, 0.006518427787079908], [3.5195577234719216e-08, -0.025324315546319438, -1.5445588241999658e-08]], [[-1.49768443513258e-07, -0.08450837227076287, -1.0134431999639865e-07], [0.0003651199809839948, 6.804008594999903e-10, 0.005488525254839922], [-1.398493873475969e-07, -0.02207760680731151, -7.873080824951826e-08]]]" pbc="F F F"
C        0.00000000       0.00000000       0.02456644
N        0.00000000       0.00000000       2.45664396
H        1.79523982       0.00000000      -0.98643704
H       -1.64028228       0.00000000       3.46197826
H        1.64028228      -0.00000000       3.46197826
H       -1.79523982       0.00000000      -0.98643704
6
Properties=species:S:1:pos:R:3 energy="_JSON [[-2577.1736090146055, -2568.6093555146863, -2567.7496777483702]]" forces="_JSON [[[-7.632527816652822e-07, -1.411183616427022e-07, 0.29323557437988573], [2.8652252003795466e-06, -1.024781623498682e-07, 1.6782826334683394], [-7.930764847814415e-07, -2.0952784123579e-08, -7.34425016080192]], [[1.841888502643153e-05, 4.3810366803847e-09, -0.03409099611130161], [1.3931805489255158e-05, -5.8776641177832e-08, 0.5629251174583002], [1.850879151830725e-05, -6.46270938876625e-08, 7.5681728368446874]], [[0.22441112081551925, 8.503564985218749e-08, -0.1252802337579127], [1.046017406264969, -2.7250048151992835e-06, -1.5378717684324075], [0.16015981647168356, -1.764931919812122e-07, -0.18869533153536194]], [[-0.0067834230428967714, 4.9470339658008596e-08, -0.004296762949955188], [0.19209430850273368, -4.155127571561385e-06, 0.4172597295467018], [-0.06876132309791622, 6.02188457993251e-08, 0.07672746277606914]], [[0.006765708416319564, -2.2884794088220698e-08, -0.004286939631684263], [-0.1921095468911872, 4.227564339531472e-06, 0.41727061410988286], [0.06874363568274695, 1.22995563946204e-08, 0.0767372588829321]], [[-0.22441112081551925, 2.50889181323894e-08, -0.12527996164383315], [-1.046017406264969, 2.813850062164849e-06, -1.5378717684324075], [-0.16015981647168356, 1.895546677985082e-07, -0.18869533153536194]]]" dipoles="_JSON [[1.60547177518e-05, -0.0, 41.30191626772819], [-0.0, -0.0, 0.0], [-0.0, -0.0, -32.80694496145066], [1.82316286334e-05, 0.0, 34.52974842355486], [0.0, -0.0, -2.7211386019999996e-05], [1.6326831612e-05, 0.0, 41.30066563242671]]" smooth_nacs="_JSON [[[8.390708731600123e-10, -4.847506937546071e-08, -3.0287122380320445e-07], [-1.5104523035340165e-08, -1.6239076560900175e-09, 0.06701439880658773], [2.1389104126499434e-09, -1.7660298635099533e-08, -4.7998877140498734e-08]], [[6.379582370200093e-10, 8.819213980590129e-08, 2.0348192553728297e-07], [5.8563187171000636e-09, 4.681938068390051e-09, 0.09855141969221308], [-1.9129289024999494e-10, 1.992118788329947e-08, -2.907446580224923e-08]], [[9.488959973870139e-08, 0.08611529776621325, -6.044709373560088e-08], [0.0005281097309058657, -1.7129126182600187e-09, -0.005591371377765761], [-2.2197462703349414e-08, -0.022781751119324397, 2.7896316427649262e-08]], [[1.0469376206796152e-07, 0.041498412229014604, 7.219062392698105e-08], [-0.008637065771573593, 4.927134617870053e-09, -0.0065526838440794705], [-2.4715483715999346e-09, 0.02561639898658432, -4.15697932154989e-09]], [[-1.0599989264696154e-07, -0.041498412229014604, 7.251353717374105e-08], [0.008637069234801694, -4.110851754700045e-09, -0.006552690770535671], [2.913780886499923e-09, -0.02561639898658432, -3.819539294999899e-09]], [[-9.504004080298138e-08, -0.08611542365831726, -6.12181828726009e-08], [-0.0005280996875443757, -2.154127878200023e-09, -0.0055913609880814605], [1.9807486295849477e-08, 0.022781751119324397, 2.7361201815749278e-08]]]" pbc="F F F"
C       -0.00000000       0.00000000       0.02219672
N       -0.00000000       0.00000000       2.45769843
H        1.77556966       0.00000000      -0.97472640
H        1.64166556       0.00000000       3.46254329
H       -1.64166367       0.00000000       3.46254329
H       -1.77556966       0.00000000      -0.97472640
6
Properties=species:S:1:pos:R:3 energy="_JSON [[-2577.150520134958, -2568.714252499089, -2567.736231503244]]" forces="_JSON [[[1.0869460849666251e-05, -0.48376441058310055, -0.05266604740797369], [3.6551723732464274e-05, 0.4357226698426087, 1.270380907116571], [2.4274399058141232e-05, 0.035304897020071564, -7.6926922396362425]], [[-1.1423893286702513e-06, 0.0794935023944611, 0.007245744864013146], [-4.839004676228641e-05, -0.048298344317485815, 0.6704945342361186], [-1.962084012711024e-05, 0.027912101707482026, 7.609534176932791]], [[-0.032053133769723914, 0.17876343974670597, 0.02235939622346997], [0.7712039550690613, -0.20277070441297554, -1.3662793510234765], [-0.09882013277878675, 0.010308878634432679, -0.03770902491269261]], [[-0.0006703176600844261, 0.023370789834255924, 0.0003544830113998229], [0.18093790335620621, 0.009044282872646851, 0.39581986122076945], [-0.06062211886518412, -0.04192543257496347, 0.07928941683481584]], [[0.0006711666560125503, 0.023394518181990676, 0.0003532095175076365], [-0.18092620245078656, 0.009686472100330572, 0.39582802464315525], [0.06062837748901324, -0.04185985308179746, 0.07929050529113395]], [[0.03204252132062236, 0.17874112639218476, 0.02235305596541699], [-0.7712039550690613, -0.203385410118627, -1.366243976193138], [0.09880924821560566, 0.010259598774630339, -0.037703038402943014]]]" dipoles="_JSON [[5.442277204e-07, -0.9246556863110293, 41.266116696166414], [-0.64148121403548, -8.163415806e-05, -0.00032653663224], [2.7211386019999996e-05, 1.26843154793628, -32.747542505769], [-0.0002209564544824, -3.1626879668475727, 33.81251261563672], [-0.03657210281088, -0.00016326831612, 0.00157826038916], [-2.6667158299599998e-05, -1.1710751952616443, 41.28742429987551]]" smooth_nacs="_JSON [[[0.012312977564620861, -4.6784139777045225e-07, 2.00785182033061e-07], [-4.865824829442012e-07, -0.019257444630333548, 0.06710462870836516], [0.0025738265025961543, 2.5053653404279554e-07, 1.2497915295187777e-05]], [[0.0009438141802872646, -3.106149909723915e-07, -2.882201380125674e-06], [-6.591425506245017e-08, 0.0061788131537215156, 0.09800061460187023], [-0.00785737210585786, 1.69810559290657e-07, -1.3380245142607762e-05]], [[-0.005059737726998424, -0.0829759945217314, 0.004975890960006925], [0.0004679762997032012, 0.0025788851529872565, -0.005676314738203514], [0.0014681671783617742, 0.021740698732041614, -0.0027960058488505505]], [[-0.00017601760042906586, -0.0407388328308542, -9.500333192994646e-05], [-0.008613559201227522, 0.0013608388746305534, -0.0065248853942565166], [0.0011634001913359794, -0.025118502797073557, -0.0006566713562215883]], [[-0.00017605275747612387, 0.0407387708254802, 9.477099779356845e-05], [0.008613465789746023, 0.0013582555282144035, -0.006524937289524016], [0.0011610873506629794, 0.025118412943123555, 0.0006594313101497883]], [[-0.005058699136983925, 0.0829776686668294, -0.004975472423732424], [-0.00046749678743150116, 0.0025720045324536564, -0.005675837301742514], [0.001466010324145974, -0.021741122842685614, 0.0027949408998351505]]]" pbc="F F F"
C        0.00000000       0.02819282       0.02441904
N        0.00000000      -0.00403834       2.45746033
H        1.79562721      -0.12338778      -0.98595894
H        1.64113643      -0.01639526       3.46219369
H       -1.64113643      -0.01642172       3.46219369
H       -1.79562721      -0.12336510      -0.98595894
6
Properties=species:S:1:pos:R:3 energy="_JSON [[-2575.0183863195543, -2568.2510471235564, -2565.927848951442]]" forces="_JSON [[[-2.200001515863866, 0.10842303864529458, -1.2801035431780707], [0.9100039047541933, -0.16329212164111886, -1.647669799521552], [-1.7967910362431432, -0.3588939806289556, -8.203804115211806]], [[3.650165474183131, -1.172487867006733, 0.8455836175669714], [1.6497950104826578, -0.16872623980927304, 1.9741495509972513], [3.1984016793524055, -0.2788352972913169, 7.845783620778133]], [[-1.058482952248101, -0.17633672638548417, 1.5423344393366503], [-1.3231655962632185, 0.08354718583717481, 0.7444279296436045], [-1.065468120669559, -0.029458526021433968, 1.4450917518768815]], [[-2.4709781585384434, 0.9592075726142656, -1.06023808806105], [-2.0961301294268195, 0.31278152871231013, -1.025657830834759], [-2.4438130099792628, 0.6297236817005881, -0.9153346195721273]], [[0.08923382587113006, 0.042839463768094665, -0.3448937112372914], [0.2833251796035124, 0.03276743322848229, 0.09682472023361524], [0.14142312941177243, -0.07580445181831355, -0.3263300887319595]], [[1.9900627823679902, 0.23835424625048277, 0.297320006713586], [0.5761743519904697, -0.09707833055573441, -0.14207239360552384], [1.9662609638317634, 0.11326666926087516, 0.1545950835453564]]]" dipoles="_JSON [[4.852744430673722, -6.078173825282595, 41.46959908700221], [-1.98422705719238, 0.43323247682442, 2.22374167694042], [-0.12721322964350001, -1.5964920177933999, -32.33518116202192], [0.110796600457634, -7.116320583494959, 36.658834749996984], [0.8097564251831599, 1.07272725968044, 2.08482755130832], [4.000130616736782, -5.842449207379421, 39.82775793383718]]" smooth_nacs="_JSON [[[0.005181374832301784, 0.02902237502759091, -0.002864493073232991], [-0.008889410714875035, -0.002318402716460237, 0.06065516754831487], [-0.0071159916405739475, 0.0012907639305539179, -0.049124757775478874]], [[0.010888590224595566, -0.04713064870466685, -0.010787237092823365], [0.0014668862626540527, 0.022913984357963574, 0.09008319882545832], [0.003334351115155288, 0.0036567492584910675, 0.030118266155023082]], [[0.0009871738829558068, -0.04580960610599985, -6.45285501836908e-05], [0.002887507391517126, -0.019002739989443046, -0.0033866863669565366], [-0.0017710570986145873, 0.010986570791882302, 0.010153156966469354]], [[-0.00611401066319338, -0.026623861644698914, 0.0012897438443366359], [-0.008424871876832243, -0.00862856821861904, -0.005949380374966689], [-0.005563770023207346, -0.016754881811074932, -0.0019302404455195773]], [[-0.0010985491717120763, 0.027566440298891912, 0.005156002975543183], [0.009065061811322831, -0.0007034716336399068, -0.0067904270492740735], [-0.0008460725086232463, 0.01648693811789895, 0.00220147452549616]], [[-0.005363242947661483, 0.0624408059853268, 0.0030434837882525904], [0.0013203160310872554, 0.014858758502753124, -0.005029416150850706], [0.011578379386184263, -0.016003300776226984, 0.008139029586471383]]]" pbc="F F F"
C        0.09102458      -0.01562218       0.01635362
N       -0.07994893       0.06133026       2.47220719
H        1.81323110       0.10493765      -1.51876615
H        2.03410262      -0.52659755       3.60048379
H       -1.67064037      -0.09955498       3.57858405
H       -2.14967162      -0.14492381      -0.81669964
6
Properties=species:S:1:pos:R:3 energy="_JSON [[-2573.294441855085, -2567.6368089098937, -2566.2740999677076]]" forces="_JSON [[[-0.16882637779053897, 0.4376138626953214, 4.344083588384934], [-0.6399252385420554, 0.36526145008988736, 0.03499114948637693], [-1.4914926447178256, 0.08442420951549033, 3.922116285262415]], [[1.1830676624187426, 0.8378827891163573, -2.2214141727818455], [1.7939583286752672, -0.015575292895374378, 2.083327161985074], [3.585211843400036, -0.5313653265147588, -1.7570079578162956]], [[1.6321783449740797, -0.15415208182388646, -0.587494297698793], [1.5509631767984513, -0.5478037380589847, -0.7414428381911933], [2.190779569708696, 0.20766086653615526, -1.2036476502533697]], [[0.19103551261929413, -0.8114115314599708, -2.715252246589036], [-0.07072054447051061, 0.34816452247320595, -2.6830176127282677], [-0.4339403226217069, -0.35489662480070394, -2.060820606467396]], [[-2.5761529714164237, -0.007066285628565088, 0.4989973567550221], [-2.552615103537338, -0.866120067148874, 0.8311697347744262], [-3.509346438027908, 0.7212002718151796, 1.1495350443986305]], [[-0.2613016265769947, -0.30286841279514154, 0.6810716085073331], [-0.08166415640684797, 0.7160709214160959, 0.4749724046735832], [-0.3411875174741337, -0.1270228523232036, -0.05018572757308508]]]" dipoles="_JSON [[-5.7005132573298, 7.034576763549299, 45.54598253809968], [-1.1034489144970199, 1.28726182706212, -28.828613113940637], [-0.74591851358024, -1.74756963297644, -12.477291254522639], [-6.408598692470993, 7.499846565704365, 34.442073882026136], [0.6091268760577, -0.8193892558342399, 6.208141663532899], [-5.194628828856722, 10.5277851095502, 49.45084609238044]]" smooth_nacs="_JSON [[[-0.0008568242388244939, 0.02931371310429545, 0.06754531550831273], [-0.007352897456891838, -0.010101984044859779, -0.02658959453083942], [-0.01408464350037151, -0.01750320336027239, -0.06730973140437765]], [[-0.005462050740787098, -0.04378519352512718, 0.010007003179164711], [0.01233330786381373, -0.006829691044017851, -0.02062042490449155], [-0.006815030053752763, -0.019049349779368337, 0.07611750373498735]], [[0.0008851550176551135, -0.015761410125973204, -0.008248971713629046], [-0.007760394188665831, -0.06686169760637853, 0.005601989398175877], [0.0027161565549891054, 0.024740646320675137, 0.009034488123257686]], [[-0.0007853494316927852, 0.0028660551241880463, -0.008283595633714344], [-0.002092611517637954, -0.029824512143719346, 0.010793760242647764], [0.00719390964211575, -0.008682941429316698, -0.003771794703110769]], [[0.006210291679975084, 0.014456051122149628, -0.005679270981874694], [-0.007791541635263829, 0.05986199717873869, -0.0023962079215843475], [0.007296570751615747, 0.030240041705101948, -0.016994159500781408]], [[0.0016171200323122797, 0.010391899831897006, -0.009341624289522125], [0.010552583600315768, 0.050094655335338904, 0.0023687913059749484], [0.003667748419811372, -0.009912190530892654, 0.003711293756959971]]]" pbc="F F F"
C       -0.06079401      -0.00444236      -0.24820997
N        0.11992556      -0.05142724       2.66180762
H        1.51505146      -0.17101293      -1.35035055
H        0.93699989       0.60084929       4.82508085
H       -1.57167583       0.01906028       3.19968658
H       -1.82285742       0.31847373      -1.31507488
6