6
Properties=species:S:1:pos:R:3 energy="_JSON [[-2576.018678764352, -2567.948481573732, -2566.6642359100347]]" forces="_JSON [[[-3.8480468328151654, -0.1141045085117388, 0.9957824260434897], [-3.50885663268476, 0.15558258553995988, 1.4821210358189156], [-3.7474462576140333, 0.07417911442129878, -6.395116251411744]], [[0.97296021819356, 0.12395286127797998, 2.655964030941693], [-0.12391612587724385, -0.055433447596763274, 2.404873485198949], [0.8634125320575805, -0.020901327351140444, 10.139950213862317]], [[3.1935036259209193, -0.019396890239659518, -1.5853747232954358], [3.7706848000056388, -0.04741996006877266, -2.4605915641228977], [3.149012973918255, -0.057127901969977905, -1.711706405856641]], [[-0.9529870447562783, -0.021151209710370086, -1.3655745755575015], [-0.5262577452420368, -0.03892564696225782, -0.5198304106836091], [-1.0319681563389902, -0.009242327499726602, -1.2917092086698974]], [[-0.12243038300302642, -0.055147455699180406, -1.5544788907059404], [0.23470301953138945, 0.045654756034881006, -0.6922364491903258], [-0.042296051951279244, -0.02966614906411307, -1.543199762109546]], [[0.7569968789769566, 0.08584736615141654, 0.8536790114328997], [0.1536516640316363, -0.05945801483296761, -0.21433854604774782], [0.8092781570764791, 0.04275864588647515, 0.8017623661999433]]]" dipoles="_JSON [[1.4239168634268395, 0.28993867861240097, 46.55674675067398], [-0.10944419457244, -1.86920452848584, 0.4768795400005], [-0.25287541028385996, 0.5253158071160999, -33.083603123116], [-0.050936993490837995, -0.11925607614353159, 49.42334463298547], [0.15276472111628, 0.46319221283243994, 0.07295372591961999], [1.5502914381532031, 0.239928232815544, 44.616383359290396]]" smooth_nacs="_JSON [[[0.002915566597060839, 0.024224701420471662, -0.0004466458425727138], [-0.0019844215706356057, -0.0028756905580797063, 0.0740215099694297], [-0.002789261796877511, -0.005498401382433401, -0.008026030424274045]], [[6.301261176033512e-05, -0.003537644881514751, -0.0012745447313423821], [-0.0009026264329521807, -0.0034075946100420784, 0.09497767796303018], [0.0004335592441483505, -0.0012823452128371267, 0.006435460490033639]], [[-0.001157496744697704, -0.08183391211643086, 0.0016091496467877378], [0.0030522679308828704, -0.0011947408389705874, -0.006705729681848555], [0.0002756413521406302, 0.029312025361311465, 0.0006454852964841645]], [[0.00010254480431098258, -0.04908481272164331, 0.0005907034201882717], [-0.007146029221976564, -0.0009448416295693417, -0.0064877387821093485], [-0.00025846228126550583, -0.027947586125039118, -0.00012056215221067072]], [[0.00016706223275027768, 0.04491510034885938, -0.000645554788886271], [0.007508578491187373, 0.0021920560806606504, -0.009677603756973822], [0.00028273680806679204, 0.023726841592222044, -0.0011612113861378958]], [[-0.0015207542712955388, 0.071554003427143, -0.0012352789215944629], [-0.00022277781653837312, 0.004042838765422893, -0.005522771874606126], [0.0020547787748045237, -0.018350741643756673, 0.002230043988290168]]]" pbc="F F F"
C        0.00332113       0.01026135      -0.00411236
N       -0.03088742      -0.00754147       2.43403021
H        1.70735192      -0.01762121      -0.65316977
H        1.73983769       0.00701956       3.57402928
H       -1.31591982       0.04108458       4.02114720
H       -1.74165317      -0.04788058      -1.32426001
6
Properties=species:S:1:pos:R:3 energy="_JSON [[-2576.7483611041403, -2568.401479133799, -2567.6467832514786]]" forces="_JSON [[[2.600088125851619, -0.24361502774997823, 1.633612386173187], [-0.19025155195617685, 0.4710104236756701, 2.7362975494996538], [2.269706258475502, 0.20126428086871406, -5.684245430055408]], [[-0.5774532881642467, 0.08986594687787128, -2.3394110010871385], [0.4806623100764928, -0.1543009282253877, -1.3207138484066805], [-0.31491218195500653, 0.11458506197618348, 5.000776496507442]], [[-0.25791625531359924, 0.08586777470738106, -0.052079641566593], [1.4118938341745875, 0.08506014011934493, -1.2751946051834038], [-0.26062025292185903, -0.13319331119055786, -0.1464297563609897]], [[1.254032293218589, 0.0369560852546414, 0.7768829759087897], [1.3039951593605414, -0.2392255555331282, 1.159086248590028], [1.1826730970034285, 0.04749724046735832, 0.87812301919681]], [[-1.1599488502221287, -0.015396160196821754, 0.8457251168883255], [-1.396279928291328, 0.3166782023311368, 1.0587060857933133], [-1.1127098460162415, -0.17842057600650194, 0.9139985394416498]], [[-1.858800392685756, 0.04632116341564263, -0.8647322853432865], [-1.6100173743374009, -0.479222826595795, -2.358173266870525], [-1.764137346699903, -0.051732696115196077, -0.96222531775622]]]" dipoles="_JSON [[0.4168071399950276, -0.393310652394478, 39.23496550857957], [-0.1337439622883, 1.1807292507938199, 4.85755894120224], [-0.21499716094402, 1.3461472664093999, -32.25224085743296], [6.881623467527899, -2.111759748507755, 30.47799590274111], [-1.12429283618834, -0.06677674129307999, 1.6083017593260798], [0.9825435562468161, -0.5986181108906362, 38.882175331107476]]" smooth_nacs="_JSON [[[0.005639850618463144, -0.020294763023063715, -0.005321918659938334], [0.006531253351774599, -0.019223323931433292, 0.06330841692545597], [0.01888090103833217, -1.2621270829412776e-06, -0.04881417712699526]], [[4.2648151428160086e-05, 0.02168691470286885, -0.013340173205859139], [0.0012077516745750683, 0.00846910344997863, 0.0911552620957064], [-0.011898611334810846, -0.008388819165081187, 0.03280438617745682]], [[-0.0020366485439841917, -0.09222161721609033, 0.004783813421475721], [-0.001379631480659421, -0.01509425440363473, -0.004790259427073073], [-0.010387547618536993, 0.023773365418313694, 0.00576374772753544]], [[0.0003267934284516983, -0.034176366550773864, 0.0010747632681220472], [-0.009934344872563651, -0.004002818009235561, -0.00590469180972159], [-0.0001783137889601427, -0.022504130250115818, -0.0015860859243192462]], [[0.00047176092934574196, 0.04291882057778409, 0.000748333328952199], [0.008806356155343635, 0.008471193928416129, -0.007330511826123612], [0.0036865222055176426, 0.02596183140681748, 0.00021075019326087955]], [[-0.003821477848342897, 0.07715699564357296, -0.004273860964690909], [-0.0035298113065220537, 0.015952397474611243, -0.006648882064878601], [-8.673131481529159e-05, -0.018815281116692176, 0.011585199938994876]]]" pbc="F F F"
C       -0.04899831       0.02061965       0.00873412
N        0.01006040      -0.00472690       2.48334232
H        1.86223994      -0.04771600      -0.82836647
H        1.63525783      -0.05308435       3.30835850
H       -1.52095737       0.05234490       3.48070249
H       -1.53291259      -0.13139162      -1.18107376
6
Properties=species:S:1:pos:R:3 energy="_JSON [[-2576.6651605916404, -2567.9728085724414, -2567.273856075654]]" forces="_JSON [[[-0.7031291757937916, -0.01879954541228185, 1.81207840523097], [-1.4573885871307066, 0.2518570911047715, 0.3648423944074158], [-1.050512730858755, -0.06311332326325379, -3.4599033097778524]], [[-3.331574309872919, -0.20394487666613453, -0.5110057510845486], [-2.5132510807929624, -0.180623339480273, 1.4154748554611627], [-2.98579894901796, -0.1122359011276269, 5.147990213531549]], [[1.094837393272908, 0.07374046652510126, -1.0631469875711936], [1.9013236598934402, -0.8666452473223611, -1.6455200982932887], [1.4908368497861655, 0.5182004473472425, -1.4537912389993597]], [[1.6371226577990854, -0.035980828393616625, 1.0783744914615245], [1.6469895143227344, 0.7947118903993988, 1.6105888139044076], [1.6249319470362757, -0.5552351735708672, 1.2974725848742792]], [[1.5265082844713598, 0.2580120394695928, -0.8084699782602839], [1.1637475627723255, -0.5765961288137367, -0.4301524946346911], [1.3714903356464185, 0.68260361077507, -0.6144471972759423]], [[-0.22376566621888122, -0.07302725552266098, -0.5078301797764685], [-0.7414183479240358, 0.5772954619981211, -1.3152334708450064], [-0.45095561601453027, -0.47022129284504177, -0.9173183312118791]]]" dipoles="_JSON [[-2.6907834845531093, -0.7440017435489912, 42.37195204921739], [-0.22188164160708, -0.40329995220242, -15.942715686941678], [0.28596445568418, 0.42583097982698, -28.361284770433155], [-3.390196106742008, -0.8531890626374024, 41.560131096176896], [-0.28931145616464, -0.48175037809808, -0.10079097381808], [-2.7838170364446078, -1.2665931466967688, 40.65184115375987]]" smooth_nacs="_JSON [[[0.004953192788606443, -0.010512828638394202, 0.02931822716703174], [-9.612733201400286e-05, 0.0028622400594536857, 0.06332262457640189], [-0.015742297967144703, 0.000851880631411638, 0.13122371181962586]], [[0.0021010797030797603, 0.022451717013929645, 0.043273438816826236], [-0.001379561640121041, -0.012009914798868359, 0.07949709305006238], [0.015654066522794698, 0.0016874208507016754, -0.1164094853541952]], [[-0.005797738389697967, -0.07542485238032716, -0.0035868359744162027], [0.005330475054618159, 0.05189164114708155, -0.005454167424538163], [0.022845101333587022, 0.01075415958897748, -0.013696846501415613]], [[-0.0027811288975840395, -0.03703890758183807, -0.0034520747539488993], [-0.010138398163656302, 0.02314799511036669, -0.005529155923802165], [0.0036139342745661615, -0.013906041072658621, 0.009324568742013416]], [[0.0004936412721497741, 0.03771752122291408, -0.0032339498534252925], [0.008861623019270265, -0.02496587950705875, -0.00568665662117017], [-0.01145375146314051, 0.01143447668123651, 0.007449407816781333]], [[0.002189625941841023, 0.06410174103819684, -0.004016067727217115], [-0.0033751544229187005, -0.04258982997710127, -0.00435561075923413], [-0.014909303231445667, -0.010784592373625482, -0.017905473553905798]]]" pbc="F F F"
C       -0.00348745       0.00442767      -0.00601359
N        0.01983085       0.00421695       2.45766412
H        1.80211381      -0.12544980      -0.72311393
H        1.57314017       0.08076357       3.36173782
H       -1.78325324      -0.14115822       3.54405131
H       -1.82601432       0.07453352      -0.87067019
6
Properties=species:S:1:pos:R:3 energy="_JSON [[-2572.1929814772307, -2568.4401598780896, -2567.421592251711]]" forces="_JSON [[[-2.172463571015734, 0.44949164226667493, 3.1333664143454523], [-1.8482940680752185, -0.2710952844132509, 0.010043295292814327], [-0.9853577356568102, 0.6488777917584937, -0.6566520910105801]], [[1.713178543026882, -0.04346396558060913, -5.184752825675647], [1.6244149302851745, -0.2316616004645162, -1.6202461425868209], [0.7216383754832182, 0.3141067242796066, -1.296884818462501]], [[0.04903033119141344, -0.19232587758441116, 0.42212785042943984], [-0.1000704969742133, 0.22010355493660683, 0.24963391907503596], [0.2642742007817476, -0.24508852549061697, 0.741451001613579]], [[-1.4831550693211182, 0.09820950878432815, 1.0950251519877816], [-1.6509188416311043, 0.15388187254291613, 1.1128050859440761], [-1.2674910555919945, -0.14158775842988627, 0.3032711416328415]], [[0.6974011744197482, -0.19442714250651866, 0.18712414484017303], [0.8007392172609218, 0.09643641344213022, 0.06101178622706678], [0.7024325637502026, -0.21095916129410203, -0.023966121017445094]], [[1.1960094080410466, -0.11748362115130508, 0.34710327756305065], [1.174131436047076, 0.03233504395611388, 0.18675162066530057], [0.5645033791195567, -0.36535124773613126, 0.9327798532106032]]]" dipoles="_JSON [[0.4790357702287248, 0.6150271208884166, 31.752090684335876], [0.81114420587018, -1.46525150301894, -28.20397574785154], [-0.39725902450598, 1.15656554000806, 9.50325003085276], [0.8700285567620192, 0.3802385746643302, 17.64729133000652], [0.24596371823478, -1.14323196085826, -5.53509524171422], [0.12683880097186478, 0.39774365929099614, 25.83404715813745]]" smooth_nacs="_JSON [[[-0.0003790190934289788, 0.023559190801331925, 0.044489211667457854], [0.0064865687920649655, 0.005477509884719002, -0.025840952332441065], [-0.010526877658214343, 0.04665146468003265, 0.01440408810421773]], [[0.00924326058577557, -0.0058990254952943815, 0.006584986756223378], [0.001682562899939179, -0.021808714573161213, 0.00855198947596549], [0.00793663437236275, 0.007353816251234841, -0.018896532471589025]], [[-0.001587514484127595, -0.0036053771367419883, -0.011057984868782364], [-0.005752675568789392, 0.01695835477994099, 0.0005682612895216794], [0.0020612892946836755, -0.015899407258937494, -0.00247459037342721]], [[-0.009977011646585368, -0.006290082096235179, -0.0013185908042858358], [-0.0007842383313571716, -0.025713792007905068, 0.00021410891428777227], [-0.004402346409891306, -0.011648494291830166, 0.01009961420343441]], [[0.003487883075474389, -0.006625108563280179, -0.008884256470666171], [-0.001963218992285729, -0.00913617473800887, 0.001771673671105536], [0.002589271934793592, -0.003026031048008723, 0.002901679022448343]], [[-0.0015812835503903949, -6.364512654637779e-05, -0.00938540117577657], [0.0011075245192105, 0.03239272498314083, 0.0033467345453288794], [0.002255319943787645, -0.0228503879436564, -0.005739786393419095]]]" pbc="F F F"
C        0.09696435      -0.05891002      -0.48177175
N       -0.07533339       0.02254704       2.97935259
H        1.82843072       0.39217661      -1.56071665
H        1.97472651      -0.17118828       3.04553414
H       -1.92866130       0.04116632       3.65499970
H       -1.96517593       0.02221813      -1.27143422
6
Properties=species:S:1:pos:R:3 energy="_JSON [[-2576.5056924891587, -2568.667325337618, -2567.1493772178605]]" forces="_JSON [[[-2.8250883736493138, -0.2577731233077681, -0.02356526976689387], [-0.17533670714322244, 0.46204426475525545, 0.29358932268327087], [-2.2642394866178046, 0.19691399307931592, -7.0793743157903375]], [[3.3530168993396465, 0.37634465654902205, -1.163380208764964], [2.1712744324882003, 0.016234897424147826, -0.06912377905184618], [2.95888686655274, 0.34812914764286745, 6.076579509917437]], [[0.8763243451311366, 0.19409244218870045, -0.3026371158275436], [0.6873411168996351, -0.5429383383170421, -1.4788774359909538], [0.7762135752731533, -0.01025475514401476, -0.49552790224105275]], [[-0.03800753405793372, -0.2279156780457475, -0.43468047291802037], [0.09567884784472705, 0.4115208436094774, -0.1762061116273112], [-0.06859533350940474, -0.2433937990033228, -0.36339474750433215]], [[-2.9197568619167575, -0.021298423427394197, 1.438618157924934], [-2.784271261720264, -0.5596216525328424, 1.909454428589707], [-2.8199726289542064, -0.14080896793428002, 1.5406908702963071]], [[1.5534883954564618, -0.06345128895002633, 0.48564199773183686], [0.005301027171857534, 0.21276055650057077, -0.4788337034620713], [1.4176898640685127, -0.1505857546976056, 0.3210401910259546]]]" dipoles="_JSON [[0.7586158905248924, 0.3569306619688992, 40.83864378130699], [0.08236886548254001, -1.33640559021424, -6.89163725758326], [-0.06868153831448, 2.0435206673299597, -31.593045031098455], [-6.647176424198364, -1.2058962453821374, 32.63809586217182], [-2.35234268727094, 0.39848353687688, -2.9734969959494797], [-0.549678161019806, 0.25257336389903795, 40.19047319224621]]" smooth_nacs="_JSON [[[0.002300861708438883, 0.02480427363153186, 0.00412192091336406], [0.0077958761159869225, 0.025066138727730114, -0.06639476816903189], [-0.02948584660257898, 0.0037453077641411785, -0.07371920470096745]], [[-0.0027149875092981396, -0.026712622840603887, 0.0206381997320718], [0.0007251529033781408, -0.011039059000418015, -0.09311507010987567], [0.016162270816641632, -0.002890645665045092, 0.04881147253632493]], [[-0.0062054129891250896, -0.06444722865096093, 0.0033541751488680486], [-0.005302975189133452, -0.023570333530079673, 0.0070002522453054], [-0.00118665883404652, -0.016353050455041655, 0.01572791801651359]], [[0.0030236470702155443, -0.03910270025682057, -0.0008779222708042628], [0.009271099172753164, -0.013039422350385571, 0.00735580477494331], [-0.005571676386162163, 0.022195130202546244, -0.00046293633155956675]], [[-0.00039652480980090574, 0.03604125756222052, -0.0017546038910923754], [-0.010321451965129494, 0.007252350806529707, 0.006734943429273692], [0.00036043729322019646, -0.023574589711922382, -0.0016160407647073634]], [[0.003577771654591552, 0.07437061803712608, -0.005388216917197579], [-0.0010990051774553912, 0.02418030208885969, 0.003934568836127412], [0.019493534328945968, 0.016944656998049715, 0.01097568647760111]]]" pbc="F F F"
C        0.04802789       0.02252157       0.02127042
N       -0.01785933      -0.01229043       2.45795500
H        1.65090716      -0.22169035      -1.12418974
H        1.54028061       0.18592369       3.62402925
H       -1.47937384      -0.11464671       3.39410059
H       -2.03553167       0.05301988      -0.91084412
6
Properties=species:S:1:pos:R:3 energy="_JSON [[-2576.4998540094684, -2568.807670623161, -2567.0000997876573]]" forces="_JSON [[[1.477013454546194, -0.49690479948345945, 0.12417926019214645], [2.198910338404963, -0.33905686423143727, 0.011360626763212487], [1.5823841895614341, 0.18425796724051513, -5.199365351746247]], [[2.8403811849187313, 0.5856548065211905, -0.023870091958780013], [2.2298714783735445, 0.21269960294675672, 1.3930172804777994], [2.606877372135817, 0.21307103866531107, 6.350054159842072]], [[0.006274379234325613, 0.4237251600762633, 0.6952242617835322], [0.024277147410344455, -0.5903297264074644, -0.3586055397046569], [0.16276041072972308, 0.1422721253398967, 0.016910311780941795]], [[-0.4340954276470373, -0.5598665552044167, -0.4940503227892212], [-0.4269633176226346, 0.5943951107555978, -0.18656631097714269], [-0.4573911139953437, -0.4620878030079798, -0.36327773845013556]], [[-1.7996618397821529, 0.08560382405023988, 0.705692490422936], [-1.575399021139976, -0.8538586067253876, 1.2093919784721845], [-1.7123404316619388, 0.07642106232252173, 0.8020045477307224]], [[-2.0899259284136043, -0.038210531161260865, -1.00717312141249], [-2.450697496191296, 0.9761548374872072, -2.068597626860278], [-2.1822896104274534, -0.15393439056026484, -1.6063329497006051]]]" dipoles="_JSON [[2.0422264938108485, 1.4466707523029032, 41.18252141351595], [0.23450772472036002, 2.07865056668178, -11.79189086345088], [0.34593835047226, -0.04138851813642, -29.218633909765302], [3.559355143707618, 0.9448517049012133, 36.958893070956364], [1.14622521332046, -0.50673043046444, -4.40639416099064], [2.487659195557336, 0.7353572304381576, 38.76927392994119]]" smooth_nacs="_JSON [[[-0.0005771566921445096, 0.009163395514924153, -0.008559656792699143], [-0.005560783197532467, 0.000330915281792548, 0.07444534817422456], [-0.0019415621008833015, -0.008037581237659179, -0.13770539229323592]], [[0.005006473142380083, 0.01636887405676527, -0.03404800884226057], [0.00343878301730773, -0.00028939502047154825, 0.07899270562102453], [0.005306116346240957, 0.0013812540989808588, 0.08828779353719098]], [[0.01077467331763218, 0.06259159967069104, -0.0009993805866227168], [0.010464371723032438, 0.0507075948986247, -0.007337613127424957], [-0.011282962877638848, -0.009429312195194037, 0.028559576312217082]], [[-0.005077966322873084, 0.031907821148960534, 0.001673546494387428], [-0.012102339957644927, 0.01888247099702239, -0.006561763203502461], [-0.007217381115229262, 0.016705554230818292, -0.0029321221078222005]], [[0.0003177640214769053, -0.03420910948503057, 0.003649451107584061], [0.010448480269972438, -0.017445418626877394, -0.006761603811479959], [0.0021479579414977806, -0.019172883648143037, -0.0026106362621767334]], [[-0.01009804496435217, -0.07942812919046133, 0.005143729533145086], [-0.008819958931664948, -0.05181723864974969, -0.0040185861034724765], [0.01311845243195366, 0.01848363097224811, 0.025800227379997365]]]" pbc="F F F"
C        0.02251960       0.02040933       0.03437079
N       -0.03613229      -0.02299973       2.45161835
H        1.67466065      -0.31727757      -1.24171702
H        1.61837638       0.37470891       3.49859782
H       -1.44900852      -0.17763637       3.56667086
H       -1.61012983       0.19676121      -0.90839669
6
Properties=species:S:1:pos:R:3 energy="_JSON [[-2574.5127749579824, -2568.5328661517296, -2567.7599195780954]]" forces="_JSON [[[-1.0787064706385476, -1.6287524287128348, 0.4353036141601372], [-0.02634224837128281, 0.06378979886495792, 2.0613485077816787], [-0.8603213161141536, -0.4617748718165237, -5.622393899778921]], [[1.882980449792525, 0.13160797456323353, -6.094402982126455], [1.4402127464309624, -0.26133781774957177, -4.855494789447977], [1.714005769828644, 0.08771869467632372, 0.023706578608392242]], [[-0.7729536486004198, 0.695795701350539, 2.1093249411430834], [-0.9953062264043173, 0.06692455306110896, 0.770828437639314], [-0.8641091441011697, 0.23667557449388066, 2.0674084883327444]], [[1.1095832552424763, 0.055334398071815456, 0.6993957706226812], [1.1278339465563523, 0.07782925268407397, 0.6515771634274016], [1.0428282292529127, -0.045138827740097816, 0.7357910287594175]], [[-2.336360602255641, 0.10353668611922823, 1.197092422077564], [-2.2061948323139005, 0.11851057968743998, 1.2409762596828835], [-2.276745849712866, -0.2217561037415743, 1.2082436570565807]], [[1.1954570164596068, 0.6424749474672233, 1.6532889552637844], [0.6597977297699122, -0.06571609443392955, 0.13077122376868802], [1.2443450319874279, 0.40427444567167337, 1.5872550315849674]]]" dipoles="_JSON [[1.3999738369817019, -1.919878659987725, 31.096726765380712], [-2.2370480447042, 0.35385686380408, 1.45289753376586], [0.29861775018347997, 2.30937590874536, -32.64941824778088], [-0.880882906531537, -7.208684191062646, 10.532120699684766], [0.5044990968108, 0.045715128513600004, 0.8557708789429799], [1.071391452740718, -2.22085754213616, 30.21327864148907]]" smooth_nacs="_JSON [[[-0.013575255306743994, -0.001070455314141308, 0.003409151795814898], [-0.0012194343350036174, -0.037570858889624685, 0.04476112380046444], [-0.00028218492590141906, -0.005573446110355586, 0.010009182824039255]], [[-0.0028130048547099157, 0.006379843587245809, 0.0016515475534317706], [0.00228889355173752, 0.011138773549219811, 0.0543278936085281], [0.011434361771083151, -0.0018204776289798645, -0.008182194714051391]], [[0.00466359087882666, 0.051499030614156456, -0.010108197430759098], [0.0015962085343619041, 0.0053859809199236115, -0.005059830662392024], [-0.0024578332678902174, -0.00792224700071541, 0.00444336920167167]], [[-0.0012810330271930616, 0.023530899334113297, -0.0017193328284178684], [-0.009209135153857878, 0.003671871794771672, -0.006936620337680358], [-0.0027423989505769965, 0.01680869851113475, 0.0012985608854295034]], [[0.0004928976531941253, -0.0200097174031566, 0.0010436813886330288], [0.007234616541434947, 0.0039050578382406635, -0.009603736117897265], [-0.0014077631262950953, -0.013421237295983003, -0.00010664770082191208]], [[0.007655394765596971, -0.05981983766206821, 0.00838993833709535], [-0.001597029704603844, 0.007783391039625928, -0.0053066582072812144], [-0.004399687623599673, 0.011962537325215112, -0.007422800506319448]]]" pbc="F F F"
C        0.04496501       0.08110448      -0.11809579
N       -0.03546895      -0.02274219       2.66395882
H        1.72259047      -0.38001191      -1.83191977
H        1.61613514       0.05196388       3.45872114
H       -1.50254257      -0.00310009       3.64597744
H       -1.87877185      -0.31858072      -1.49253717
6
Properties=species:S:1:pos:R:3 energy="_JSON [[-2576.63805340338, -2568.2941782936173, -2567.300359714886]]" forces="_JSON [[[-1.5480052967539928, -0.17632611393638262, 0.367626121440977], [-1.9449598736863898, -0.02498826313437236, 1.1903031757933655], [-1.3559226891566787, 0.04923686577777443, -6.84598206978003]], [[-3.20479636022129, 0.7386999282695611, 0.27503658474112], [-2.5946240751347163, -0.2041742688351758, 0.8161027781910162], [-3.213857759069539, -0.17040926539114754, 7.575411071360106]], [[1.1078199560071413, -0.04564441569985898, -0.769146772627837], [1.900344049207143, 0.32571783205302374, -1.875246967652368], [1.0353042749539911, -0.05877528060743436, -0.9129291311091088]], [[1.3451877887193386, 0.03644396655697158, 0.7510430229169058], [1.3971098762338856, 0.06153615005831531, 1.3399468715476486], [1.275298008533624, 0.4242639459537268, 0.7916832606942632]], [[1.643345906797868, -0.6197942389386478, -1.0256224560044205], [1.3124579072338312, 0.05987679840135967, -0.6442191987169914], [1.6702008453063875, -0.44898006779716415, -0.901513945472951]], [[0.6564452843101395, 0.06662032952019778, 0.40106349953325476], [-0.07033250979310511, -0.21796691518416086, -0.8268866591626713], [0.5889800405730105, 0.20466325783608583, 0.293338977730106]]]" dipoles="_JSON [[-3.04254616008909, 4.8707349664269834, 41.78891136836776], [0.71949625775482, -1.9815059185903798, 4.55717245092746], [0.18321426207266, 1.1236397629238601, -32.2780100399939], [-5.983968551109076, 5.837098904660168, 38.02182640858049], [1.0328625791611399, -0.2185074297406, 1.38582146722656], [-3.266683625597228, 4.999831768210789, 41.02252853193118]]" smooth_nacs="_JSON [[[0.0007752178111627464, 0.0020920275130726276, -0.006134233882797351], [-0.0023699847810480994, -0.013837052856447879, -0.06602327506645943], [0.021321349230234782, 0.008267215086632753, 0.05848149892805118]], [[-0.012420618320856704, 0.022251518897706386, -0.015839676177330533], [0.0026123840513467772, 0.033405039160734916, -0.09510990410768719], [-0.007138845619217923, -0.005705545584007139, -0.04167554863151371]], [[0.0034221088399983284, -0.08621616426656971, 0.0017037421783801941], [-0.0017891358208465445, 0.012924679389952289, 0.006200498025742347], [0.002303286024293353, -0.025092514807644215, -0.010625164148118397]], [[0.004494233649452937, -0.04149616627994135, 0.0064996650511549535], [0.008863747741146323, 0.0046724485929679595, 0.006013232221321548], [0.0003214772474916215, 0.02619685636573205, -0.00218811239167447]], [[0.0046588150461303384, 0.0361075467758053, -0.0019884378834178163], [-0.00826601184716673, -0.010082670648863113, 0.007421243079287537], [-0.0042588090571693575, -0.020588244166957897, 0.005808461294134124]], [[-0.0031608986555746264, 0.07433756620067962, 0.0007492344702683661], [0.0011864880256639897, -0.02190919319162381, 0.005095533010333156], [-0.012564974995447105, 0.01688735447209445, -0.009758161651835528]]]" pbc="F F F"
C       -0.00050529       0.01389280       0.01792732
N        0.02453252      -0.05060020       2.45447767
H        1.74641226       0.08795331      -0.85285404
H        1.55611521       0.17404494       3.41757593
H       -1.78984122       0.33263487       3.56952324
H       -1.84753482      -0.05699292      -1.06302791
6
Properties=species:S:1:pos:R:3 energy="_JSON [[-2571.7207484449955, -2567.744000904443, -2566.98202161667]]" forces="_JSON [[[-0.4314450365124443, 0.3004928568808708, 2.7494950823567135], [-0.26610335162432813, -0.292079089541896, -0.6124090628202852], [0.8106414486149094, 0.609051175078922, -1.186580655185436]], [[2.8114282468570586, -0.03339601675218966, -5.412512310239746], [2.719045516857642, 0.05348783192814523, -1.8323590675781174], [1.715943222074876, 0.28341225610896104, -1.517318992005733]], [[-0.89948941672127, -0.10836262931963957, 1.1462098103468104], [-0.9725901430454035, 0.07519927010544551, 1.0148766710038992], [-0.6870771662424939, -0.27450596228604235, 1.3905655326212614]], [[-2.3428940613050844, 0.023135465578280973, 1.2590963362385863], [-2.4753755220635996, 0.09784297111920529, 1.3746849549400655], [-2.1508332228341325, -0.14583763612393896, 0.49193599639129637]], [[0.5554691916792603, -0.09200231451623776, 0.2685866647140915], [0.6807396293303101, -0.09839563481472462, 0.21300382648766789], [0.5880875063921619, -0.21642566103771993, 0.1669408993334964]], [[0.30692019143929855, -0.08986676322010986, -0.010872726218620576], [0.31428631957209446, 0.16394519543198366, -0.1577959614628325], [-0.2767590668645259, -0.25569308328386364, 0.6544561303887971]]]" dipoles="_JSON [[3.553851912998933, -0.690762394687001, 28.937436888911822], [0.64741329618784, -0.71424446025296, -29.26532864817562], [-0.18786740908208, 1.6533366031891799, 6.59410796284058], [4.00640039218965, -1.0975649964979153, 15.849671250495772], [-0.03937487557094, -0.77059924070038, -3.6791154468341], [4.293441058190921, -1.2208325751685154, 27.07014232761073]]" smooth_nacs="_JSON [[[-2.252527508538528e-05, 0.010475143435002863, 0.04090543283386069], [-0.00043328703984823607, 0.005603631563631348, -0.015458283700096458], [-0.00771302957614085, 0.05496311019080606, 0.005710707063160629]], [[0.008302893551028935, -0.0004313700202352862, 0.0063606970581471965], [-0.0018748818746291828, -0.02920527720704773, 0.0017272786068866443], [0.007789397175980858, 0.0020915156804642305, -0.00989264801842109]], [[-0.0025072848548771194, -0.0009346925022656101, -0.009322085154735902], [-0.0008110349302209726, 0.016964769089190042, 0.001425130308992247], [-0.00021369960136382354, -0.018575707405202046, -0.0015557616288101714]], [[-0.009911174525783082, -0.006404883291398195, 0.0024989591075369197], [0.0006631072306042539, -0.02287061860865979, -0.00012599934401654684], [-0.002914326164780321, -0.009969057621561098, 0.00862619251902095]], [[0.005082773027749637, -0.004943146868959042, -0.006679955928903386], [-0.00030104979211751726, -0.007977516827347528, 0.002513164581295577], [0.0014279231851501574, -0.0028841453936203176, 0.0022124905048822438]], [[-0.0018635264375771402, 0.0028008927659501103, -0.009875645783710484], [0.003081791085410572, 0.03488407143370368, 0.00217961099934878], [0.001616593048046178, -0.025180129883342773, -0.004983803553800549]]]" pbc="F F F"
C        0.07691498      -0.02139546      -0.46126503
N       -0.08082623       0.01897133       2.97249332
H        1.90476330       0.10470750      -1.75578369
H        2.13392780      -0.10832025       2.87167058
H       -1.95442589      -0.08039916       3.55122065
H       -1.87799717       0.12984712      -1.19032656
6