6
Properties=species:S:1:pos:R:3 energy="_JSON [[-2576.018678764352, -2567.948481573732, -2566.6642359100347]]" forces="_JSON [[[-0.141413, -0.00419326, 0.0365943], [-0.128948, 0.00571755, 0.0544669], [-0.137716, 0.00272603, -0.235016]], [[0.0357556, 0.00455518, 0.0976048], [-0.00455383, -0.00203714, 0.0883774], [0.0317298, -0.000768109, 0.372636]], [[0.117359, -0.000712822, -0.0582614], [0.13857, -0.00174265, -0.090425], [0.115724, -0.00209941, -0.062904]], [[-0.0350216, -0.000777292, -0.0501839], [-0.0193396, -0.00143049, -0.0191034], [-0.0379241, -0.000339649, -0.0474694]], [[-0.00449923, -0.00202663, -0.057126], [0.00862517, 0.00167778, -0.0254392], [-0.00155435, -0.00109021, -0.0567115]], [[0.0278191, 0.00315483, 0.0313721], [0.00564659, -0.00218504, -0.00787679], [0.0297404, 0.00157135, 0.0294642]]]" pbc="F F F"
C        0.00332113       0.01026135      -0.00411236
N       -0.03088742      -0.00754147       2.43403021
H        1.70735192      -0.01762121      -0.65316977
H        1.73983769       0.00701956       3.57402928
H       -1.31591982       0.04108458       4.02114720
H       -1.74165317      -0.04788058      -1.32426001
6
Properties=species:S:1:pos:R:3 energy="_JSON [[-2576.7483611041403, -2568.401479133799, -2567.6467832514786]]" forces="_JSON [[[0.0955514, -0.00895268, 0.0600341], [-0.00699161, 0.0173093, 0.100557], [0.0834101, 0.00739632, -0.208892]], [[-0.021221, 0.00330251, -0.0859717], [0.017664, -0.00567045, -0.0485353], [-0.0115728, 0.00421092, 0.183775]], [[-0.00947824, 0.00315558, -0.00191389], [0.0518861, 0.0031259, -0.0468625], [-0.00957761, -0.00489476, -0.00538119]], [[0.0460848, 0.00135811, 0.0285499], [0.0479209, -0.00879137, 0.0425956], [0.0434624, 0.00174549, 0.0322704]], [[-0.0426273, -0.000565798, 0.0310798], [-0.0513123, 0.0116377, 0.0389067], [-0.0408913, -0.00655683, 0.0335888]], [[-0.0683096, 0.00170227, -0.0317783], [-0.059167, -0.0176111, -0.0866612], [-0.0648308, -0.00190114, -0.0353611]]]" pbc="F F F"
C       -0.04899831       0.02061965       0.00873412
N        0.01006040      -0.00472690       2.48334232
H        1.86223994      -0.04771600      -0.82836647
H        1.63525783      -0.05308435       3.30835850
H       -1.52095737       0.05234490       3.48070249
H       -1.53291259      -0.13139162      -1.18107376
6
Properties=species:S:1:pos:R:3 energy="_JSON [[-2576.6651605916404, -2567.9728085724414, -2567.273856075654]]" forces="_JSON [[[-0.0258395, -0.00069087, 0.0665926], [-0.053558, 0.00925557, 0.0134077], [-0.0386056, -0.00231937, -0.127149]], [[-0.122433, -0.00749483, -0.0187791], [-0.0923602, -0.00663778, 0.0520177], [-0.109726, -0.00412459, 0.189185]], [[0.0402345, 0.00270991, -0.0390699], [0.0698723, -0.0318486, -0.0604717], [0.0547872, 0.0190435, -0.0534258]], [[0.0601631, -0.00132227, 0.0396295], [0.0605257, 0.0292051, 0.059188], [0.0597151, -0.0204045, 0.0476812]], [[0.0560981, 0.00948176, -0.0297107], [0.0427669, -0.0211895, -0.0158078], [0.0504013, 0.0250852, -0.0225805]], [[-0.00822323, -0.0026837, -0.0186624], [-0.0272466, 0.0212152, -0.0483339], [-0.0165723, -0.0172803, -0.0337108]]]" pbc="F F F"
C       -0.00348745       0.00442767      -0.00601359
N        0.01983085       0.00421695       2.45766412
H        1.80211381      -0.12544980      -0.72311393
H        1.57314017       0.08076357       3.36173782
H       -1.78325324      -0.14115822       3.54405131
H       -1.82601432       0.07453352      -0.87067019
6
Properties=species:S:1:pos:R:3 energy="_JSON [[-2572.1929814772307, -2568.4401598780896, -2567.421592251711]]" forces="_JSON [[[-0.0798365, 0.0165185, 0.115149], [-0.0679235, -0.00996256, 0.000369084], [-0.0362112, 0.0238458, -0.0241315]], [[0.0629581, -0.00159727, -0.190536], [0.0596961, -0.0085134, -0.0595429], [0.0265197, 0.0115432, -0.0476596]], [[0.00180183, -0.00706784, 0.0155129], [-0.00367752, 0.00808865, 0.00917387], [0.00971189, -0.00900683, 0.0272478]], [[-0.0545049, 0.00360913, 0.0402414], [-0.0606701, 0.00565505, 0.0408948], [-0.0465794, -0.00520325, 0.011145]], [[0.025629, -0.00714506, 0.00687668], [0.0294266, 0.00354397, 0.00224214], [0.0258139, -0.0077526, -0.000880738]], [[0.0439525, -0.00431744, 0.0127558], [0.0431485, 0.00118829, 0.00686299], [0.0207451, -0.0134264, 0.034279]]]" pbc="F F F"
C        0.09696435      -0.05891002      -0.48177175
N       -0.07533339       0.02254704       2.97935259
H        1.82843072       0.39217661      -1.56071665
H        1.97472651      -0.17118828       3.04553414
H       -1.92866130       0.04116632       3.65499970
H       -1.96517593       0.02221813      -1.27143422
6
Properties=species:S:1:pos:R:3 energy="_JSON [[-2576.5056924891587, -2568.667325337618, -2567.1493772178605]]" forces="_JSON [[[-0.10382, -0.00947298, -0.000866007], [-0.0064435, 0.0169798, 0.0107892], [-0.0832092, 0.00723645, -0.260162]], [[0.123221, 0.0138304, -0.0427534], [0.0797928, 0.000596621, -0.00254025], [0.108737, 0.0127935, 0.22331]], [[0.0322043, 0.00713276, -0.0111217], [0.0252593, -0.0199526, -0.0543477], [0.0285253, -0.000376855, -0.0182103]], [[-0.00139675, -0.00837574, -0.0159742], [0.00351613, 0.0151231, -0.00647545], [-0.00252083, -0.00894455, -0.0133545]], [[-0.107299, -0.000782702, 0.0528682], [-0.10232, -0.0205657, 0.0701711], [-0.103632, -0.00517463, 0.0566193]], [[0.0570896, -0.00233179, 0.017847], [0.000194809, 0.0078188, -0.0175968], [0.0520991, -0.00553392, 0.011798]]]" pbc="F F F"
C        0.04802789       0.02252157       0.02127042
N       -0.01785933      -0.01229043       2.45795500
H        1.65090716      -0.22169035      -1.12418974
H        1.54028061       0.18592369       3.62402925
H       -1.47937384      -0.11464671       3.39410059
H       -2.03553167       0.05301988      -0.91084412
6
Properties=species:S:1:pos:R:3 energy="_JSON [[-2576.4998540094684, -2568.807670623161, -2567.0000997876573]]" forces="_JSON [[[0.0542792, -0.0182609, 0.0045635], [0.0808084, -0.0124601, 0.000417495], [0.0581515, 0.00677135, -0.191073]], [[0.104382, 0.0215224, -0.000877209], [0.0819462, 0.00781656, 0.0511924], [0.0958009, 0.00783021, 0.23336]], [[0.000230579, 0.0155716, 0.025549], [0.000892168, -0.0216942, -0.0131785], [0.00598133, 0.0052284, 0.000621442]], [[-0.0159527, -0.0205747, -0.018156], [-0.0156906, 0.0218436, -0.00685618], [-0.0168088, -0.0169814, -0.0133502]], [[-0.0661363, 0.00314588, 0.0259337], [-0.0578948, -0.0313787, 0.0444443], [-0.0629273, 0.00280842, 0.0294731]], [[-0.0768033, -0.00140421, -0.0370129], [-0.0900614, 0.035873, -0.0760195], [-0.0801976, -0.00565698, -0.0590316]]]" pbc="F F F"
C        0.02251960       0.02040933       0.03437079
N       -0.03613229      -0.02299973       2.45161835
H        1.67466065      -0.31727757      -1.24171702
H        1.61837638       0.37470891       3.49859782
H       -1.44900852      -0.17763637       3.56667086
H       -1.61012983       0.19676121      -0.90839669
6
Properties=species:S:1:pos:R:3 energy="_JSON [[-2574.5127749579824, -2568.5328661517296, -2567.7599195780954]]" forces="_JSON [[[-0.0396417, -0.0598555, 0.0159971], [-0.000968059, 0.00234423, 0.0757531], [-0.0316162, -0.0169699, -0.206619]], [[0.0691982, 0.0048365, -0.223965], [0.0529268, -0.00960398, -0.178436], [0.0629885, 0.0032236, 0.0008712]], [[-0.0284055, 0.02557, 0.0775162], [-0.0365768, 0.00245943, 0.0283274], [-0.0317554, 0.00869766, 0.0759758]], [[0.0407764, 0.0020335, 0.0257023], [0.0414471, 0.00286017, 0.023945], [0.0383232, -0.00165882, 0.0270398]], [[-0.0858596, 0.0038049, 0.0439923], [-0.0810761, 0.00435518, 0.045605], [-0.0836688, -0.00814938, 0.0444021]], [[0.0439322, 0.0236105, 0.0607572], [0.0242471, -0.00241502, 0.00480575], [0.0457288, 0.0148568, 0.0583305]]]" pbc="F F F"
C        0.04496501       0.08110448      -0.11809579
N       -0.03546895      -0.02274219       2.66395882
H        1.72259047      -0.38001191      -1.83191977
H        1.61613514       0.05196388       3.45872114
H       -1.50254257      -0.00310009       3.64597744
H       -1.87877185      -0.31858072      -1.49253717
6
Properties=species:S:1:pos:R:3 energy="_JSON [[-2576.63805340338, -2568.2941782936173, -2567.300359714886]]" forces="_JSON [[[-0.0568881, -0.00647986, 0.01351], [-0.0714759, -0.000918301, 0.0437428], [-0.0498292, 0.00180942, -0.251585]], [[-0.117774, 0.0271467, 0.0101074], [-0.0953506, -0.00750326, 0.0299912], [-0.118107, -0.00626242, 0.278391]], [[0.0407116, -0.0016774, -0.0282656], [0.0698363, 0.0119699, -0.068914], [0.0380467, -0.00215995, -0.0335495]], [[0.0494347, 0.00133929, 0.0276003], [0.0513428, 0.00226141, 0.0492421], [0.0468663, 0.0155914, 0.0290938]], [[0.0603918, -0.022777, -0.0376909], [0.0482319, 0.00220043, -0.0236746], [0.0613787, -0.0164997, -0.03313]], [[0.0241239, 0.00244825, 0.0147388], [-0.00258467, -0.00801013, -0.0303875], [0.0216446, 0.00752123, 0.01078]]]" pbc="F F F"
C       -0.00050529       0.01389280       0.01792732
N        0.02453252      -0.05060020       2.45447767
H        1.74641226       0.08795331      -0.85285404
H        1.55611521       0.17404494       3.41757593
H       -1.78984122       0.33263487       3.56952324
H       -1.84753482      -0.05699292      -1.06302791
6
Properties=species:S:1:pos:R:3 energy="_JSON [[-2571.7207484449955, -2567.744000904443, -2566.98202161667]]" forces="_JSON [[[-0.0158553, 0.0110429, 0.101042], [-0.00977911, -0.0107337, -0.0225056], [0.0297905, 0.0223822, -0.043606]], [[0.103318, -0.00122728, -0.198906], [0.099923, 0.00196564, -0.0673379], [0.0630597, 0.0104152, -0.0557604]], [[-0.0330556, -0.00398225, 0.0421224], [-0.035742, 0.00276352, 0.037296], [-0.0252496, -0.0100879, 0.0511023]], [[-0.0860997, 0.000850212, 0.0462709], [-0.0909683, 0.00359566, 0.0505187], [-0.0790416, -0.00535943, 0.0180783]], [[0.0204131, -0.00338102, 0.00987037], [0.0250167, -0.00361597, 0.00782774], [0.0216118, -0.00795349, 0.00613496]], [[0.0112791, -0.00330254, -0.000399565], [0.0115498, 0.00602487, -0.00579889], [-0.0101707, -0.00939654, 0.0240508]]]" pbc="F F F"
C        0.07691498      -0.02139546      -0.46126503
N       -0.08082623       0.01897133       2.97249332
H        1.90476330       0.10470750      -1.75578369
H        2.13392780      -0.10832025       2.87167058
H       -1.95442589      -0.08039916       3.55122065
H       -1.87799717       0.12984712      -1.19032656
6
Properties=species:S:1:pos:R:3 energy="_JSON [[-2576.242110818709, -2568.6670728157524, -2567.968762236079]]" forces="_JSON [[[-0.0724823, 0.0129166, 0.0430219], [0.021013, -0.00530613, 0.0906124], [-0.0613978, -0.00118085, -0.209132]], [[-0.0564554, -0.00446396, -0.0784378], [-0.111932, 0.00776952, -0.0364974], [-0.066206, -0.000549211, 0.174073]], [[0.00205641, -0.00527731, 0.0295518], [-0.0040072, 0.00605014, -0.0204969], [-0.000440907, -0.00213412, 0.0272123]], [[0.0539215, -0.000177248, 0.0445649], [0.068873, -0.0100146, 0.042584], [0.0511683, 0.00219914, 0.0484416]], [[0.0490701, 0.000265026, -0.0532984], [0.0536711, 0.00274221, -0.0433438], [0.0514208, 0.000234895, -0.0527458]], [[0.0238897, -0.00326307, 0.0145976], [-0.0276181, -0.00124118, -0.0328583], [0.0254556, 0.00143014, 0.0121517]]]" pbc="F F F"
C        0.06938226      -0.02234676      -0.04693502
N       -0.04586412       0.01500077       2.54094537
H        1.70588748       0.10620192      -1.37622446
H        1.64366337      -0.07040517       3.18786402
H       -1.70582455      -0.01518878       3.88294458
H       -1.83260345       0.03703883      -1.05246055
6
Properties=species:S:1:pos:R:3 energy="_JSON [[-2572.85805196152, -2569.083651443758, -2567.481177071705]]" forces="_JSON [[[-0.0532511, -0.00930487, 0.124707], [-0.0514802, 0.0238613, 0.00548375], [-0.0132454, -0.0345367, -0.0365571]], [[0.111694, -0.0174654, -0.208208], [0.114736, -0.0051927, -0.0872576], [0.0851887, 0.00351039, -0.0299058]], [[0.00653229, -0.000565427, 0.0155861], [0.00428823, 0.000692936, 0.0116198], [0.0127728, 0.0137777, 0.0259411]], [[-0.0560472, 0.0238709, 0.0307333], [-0.0676659, 0.00152052, 0.0331381], [-0.047801, 0.0132927, -0.00130842]], [[-0.0280271, -0.0119673, 0.0227043], [-0.023734, -0.00730127, 0.0242068], [-0.0336051, -0.00974927, 0.00962961]], [[0.0190992, 0.0154322, 0.0144774], [0.023856, -0.0135808, 0.0128091], [-0.00331, 0.0137052, 0.0322006]]]" pbc="F F F"
C        0.05206996      -0.00759876      -0.42808340
N       -0.05302112       0.06792772       2.92078465
H        1.80820453       0.19500198      -1.51082664
H        1.87539855      -0.70290157       3.07744805
H       -1.74447524       0.10773011       3.68914075
H       -1.82382758      -0.45685288      -1.35817961
6
Properties=species:S:1:pos:R:3 energy="_JSON [[-2575.701268303033, -2568.704025635638, -2567.8732627114127]]" forces="_JSON [[[0.0413546, -0.00752256, 0.127173], [0.0396618, 0.000485906, -0.0775957], [0.00989208, 0.00353954, 0.151081]], [[0.0373714, -0.00726816, -0.0692927], [0.0367842, -0.00176682, 0.144372], [0.053917, 0.000419324, -0.0642524]], [[-0.0526467, 0.000429279, 0.0163044], [-0.0518264, 0.00678752, 0.011846], [-0.0084743, -0.00849398, -0.0154426]], [[-0.0641453, 0.00887665, -0.054197], [-0.0677505, -0.00521478, -0.0551068], [-0.0576432, 0.0100633, -0.0342254]], [[0.0224839, -0.000558791, -0.020427], [0.0268271, 0.00859302, -0.020099], [0.0110889, -0.00929514, -0.00190634]], [[0.015582, 0.00604359, 0.000439655], [0.0163038, -0.00888484, -0.0034163], [-0.0087805, 0.00376697, -0.0352543]]]" pbc="F F F"
C       -0.01600052       0.01096863      -0.18122321
N       -0.00164201       0.00962488       2.60351837
H        2.02828345       0.01242641      -1.09973711
H        1.81589645      -0.13197892       3.85181550
H       -1.70220241       0.00710234       3.65307116
H       -1.92865755      -0.15187516      -1.03350674
6
Properties=species:S:1:pos:R:3 energy="_JSON [[-2576.2083128894615, -2569.0875568250276, -2568.543406218486]]" forces="_JSON [[[-0.0215789, 0.0358631, 0.0728829], [-0.00959702, -0.0103104, 0.0209313], [0.00660206, -0.0108596, -0.0362997]], [[0.0539, -0.00846175, -0.169769], [0.0548843, -0.0134911, -0.0587365], [0.0307082, -0.015463, -0.00562708]], [[0.0105069, -0.0187748, 0.024352], [0.00724028, 0.0257854, -0.0041573], [0.00982512, -0.00897917, -0.00981868]], [[0.023291, 0.000169206, 0.00881277], [0.0213474, -0.0210788, 0.0160078], [0.0256549, 0.0180959, 0.00857166]], [[-0.0713052, 0.00163008, 0.035015], [-0.0672317, 0.0364233, 0.0377982], [-0.067002, -0.00129189, 0.0400709]], [[0.00518621, -0.0104258, 0.0287069], [-0.0066432, -0.0173285, -0.0118435], [-0.00578836, 0.0184979, 0.00310291]]]" pbc="F F F"
C        0.01810699      -0.05426728      -0.08412766
N       -0.01306919      -0.00825421       2.58667853
H        1.64517479       0.37989943      -1.33522471
H        1.58673192      -0.02278152       3.56366410
H       -1.52850140       0.26823514       3.49764239
H       -1.73742885       0.13549696      -1.27656630
6
Properties=species:S:1:pos:R:3 energy="_JSON [[-2574.770521686224, -2568.54053160535, -2567.270546079991]]" forces="_JSON [[[-0.0384518, 0.0232788, 0.173075], [-0.0345513, -0.00400136, -0.0180947], [0.0154402, 0.00535553, -0.0416661]], [[0.136615, 0.000873441, -0.263449], [0.127166, -0.0178951, -0.0630786], [0.0985916, 0.0159569, -0.0386266]], [[-0.00617053, -0.00181695, -0.0303487], [-0.00441627, -0.00459161, -0.0362689], [-0.00430873, -0.000381527, -0.0170131]], [[0.0104412, -0.00488895, 0.0405789], [0.00600356, 0.0226775, 0.0381803], [0.0289867, -0.00517136, 0.00731171]], [[-0.130354, -0.00108452, 0.0959525], [-0.125006, -0.00567062, 0.0960352], [-0.140449, -0.00857, 0.0800389]], [[0.0279197, -0.0163618, -0.0158083], [0.0308038, 0.00948125, -0.0167734], [0.00173951, -0.0071895, 0.00995523]]]" pbc="F F F"
C        0.01057216      -0.04047080      -0.22199023
N       -0.03738170      -0.01922726       2.65637017
H        2.02765151       0.10871247      -0.60910948
H        1.77268288       0.30453529       3.05020458
H       -1.44778521      -0.06743142       3.58737551
H       -1.95904719       0.40323693      -0.90576690
6
Properties=species:S:1:pos:R:3 energy="_JSON [[-2575.9648864367687, -2568.8571600108044, -2567.745425421649]]" forces="_JSON [[[-0.0263205, -0.00627177, 0.0414933], [-0.0271797, 0.00580795, -0.0158291], [-0.0178469, -0.00335568, -0.0794247]], [[0.0442417, 0.0109715, -0.199282], [0.038467, 0.0171751, -0.0982097], [0.0341555, 0.0170347, -0.0232783]], [[-0.0135075, 0.0150804, 0.00940596], [-0.00376601, -0.0242999, -0.016569], [-0.00163356, 0.0137183, -0.0206082]], [[0.0674585, -0.000985327, 0.029948], [0.0647124, 0.0351817, 0.0373355], [0.0673765, -0.00675452, 0.0321694]], [[-0.115373, -0.00865623, 0.0689852], [-0.106512, -0.0477167, 0.0749436], [-0.111068, -0.00800632, 0.0719656]], [[0.0435007, -0.0101386, 0.0494496], [0.0342784, 0.0138519, 0.0183287], [0.0290165, -0.0126365, 0.0191763]]]" pbc="F F F"
C       -0.00833299       0.01012725      -0.06006094
N       -0.00952672       0.00509720       2.55783991
H        1.86984436      -0.32664150      -0.97730660
H        1.56409384       0.19682767       3.40518613
H       -1.36505182      -0.26484615       3.58525448
H       -1.83729935       0.20325164      -1.44947346
6
Properties=species:S:1:pos:R:3 energy="_JSON [[-2572.523000072311, -2568.4125906401223, -2567.1940471930416]]" forces="_JSON [[[-0.00261315, 0.0418909, 0.114287], [-0.01144, 0.0182749, -0.00675816], [-0.0425175, 0.0323721, -0.0385361]], [[-0.0519281, -0.0107186, -0.16981], [-0.051215, -0.0215846, -0.0278798], [-0.0166149, 0.0120648, -0.0151524]], [[-0.017873, -0.00500261, 0.000964115], [-0.0169555, -0.00383489, -0.00632736], [0.00434199, -0.0118525, 0.0249157]], [[-0.0540238, -0.0130963, -0.00333741], [-0.0582493, 0.00310178, -0.00935143], [-0.0527472, -0.0121021, -0.0135499]], [[0.0816518, 0.0137531, 0.0229617], [0.087747, 0.0142797, 0.0217894], [0.070352, 0.0016616, -0.00444225]], [[0.0447862, -0.0268265, 0.0349343], [0.0501128, -0.0102369, 0.0285273], [0.0371856, -0.0221439, 0.0467649]]]" pbc="F F F"
C       -0.04227498      -0.09717931      -0.43098806
N        0.04698563       0.04419933       2.90676409
H        1.93180723       0.06363453      -1.16522118
H        1.96237640       0.21553610       3.66256602
H       -2.07903459      -0.30295984       3.20806479
H       -1.94213598       0.56779718      -1.52211958
6
Properties=species:S:1:pos:R:3 energy="_JSON [[-2576.0715894423174, -2568.8694334442475, -2568.6050318940765]]" forces="_JSON [[[0.0805103, 0.0191502, 0.0723033], [0.0127605, -0.00631279, 0.10217], [0.0669874, 0.00125345, -0.124052]], [[-0.035416, -0.0077994, -0.160732], [0.0016703, 0.0134953, -0.100108], [-0.0220078, -0.000571231, 0.0522278]], [[-0.0371812, -0.00624801, 0.0431536], [0.00120018, -0.00913956, -0.0091072], [-0.0349292, 0.00693331, 0.0349113]], [[0.040534, -0.000562733, 0.00702679], [0.0341711, 0.00772811, 0.0153808], [0.0368424, -0.00971613, 0.00691586]], [[-0.0326631, 0.00100938, 0.0179268], [-0.0392009, -0.0211185, 0.017834], [-0.0324231, 0.0122049, 0.0204206]], [[-0.015784, -0.00554946, 0.0203217], [-0.0106012, 0.0153474, -0.0261697], [-0.0144697, -0.0101043, 0.00957619]]]" pbc="F F F"
C       -0.04874293      -0.03635055      -0.10331521
N        0.04497217       0.03275478       2.60049267
H        1.82377842       0.09665947      -1.36855476
H        1.46574242      -0.04832637       3.79057020
H       -1.62493710      -0.16972177       3.38569567
H       -1.70907409       0.09911571      -1.32167464
6
Properties=species:S:1:pos:R:3 energy="_JSON [[-2575.603535538116, -2568.5979411453923, -2568.1578341735003]]" forces="_JSON [[[-0.00544409, 0.00877998, 0.0438426], [0.0203414, -0.00150065, 0.113346], [0.000519736, 0.00073209, -0.192316]], [[0.120344, -0.00108067, -0.15262], [0.075673, -0.000498023, -0.115342], [0.112873, -0.00269076, 0.0830236]], [[-0.0426103, -0.00469762, 0.0537947], [-0.0283518, 0.00104822, 0.00181995], [-0.0446645, -0.00168495, 0.0523214]], [[-0.0664489, 0.000445673, 0.0154121], [-0.0497617, -0.000834286, 0.00973039], [-0.0681541, 0.00178964, 0.0192584]], [[-0.0182843, -0.0007744, 0.00628785], [-0.0105953, 0.00116945, 0.0145458], [-0.0152372, 0.00165, 0.00577142]], [[0.0124435, -0.00267296, 0.0332829], [-0.00730557, 0.000615288, -0.0241005], [0.0146635, 0.000203981, 0.0319409]]]" pbc="F F F"
C        0.02054772      -0.00965918      -0.09459930
N       -0.07181417      -0.00136364       2.61965184
H        1.94802538       0.06916382      -1.37832606
H        1.98234824      -0.01040646       3.07515913
H       -1.50058754       0.03038940       3.84997897
H       -1.67664768       0.04480213      -1.43076760
6
Properties=species:S:1:pos:R:3 energy="_JSON [[-2575.713371665176, -2568.9029023875732, -2566.50178734204]]" forces="_JSON [[[-0.124643, 0.0435838, -0.0209113], [-0.0715999, -0.0412837, 0.033949], [-0.128471, -0.0184544, -0.296255]], [[0.0175689, 0.00995461, 0.0415095], [0.00476497, 0.0106125, 0.0811329], [0.0219262, 0.00788447, 0.321637]], [[0.114385, 0.00200014, -0.0483528], [0.0836226, 0.0298818, -0.107813], [0.109064, 0.0191704, -0.050155]], [[-0.0225255, -0.0155351, -0.0266683], [-0.022651, -0.00227476, -0.0194803], [-0.0253244, 0.00260974, -0.0252141]], [[0.00172644, -0.00288768, 0.00018782], [-0.0010109, -0.00343121, 0.0105728], [0.00339076, 0.00144913, 0.00223514]], [[0.0134879, -0.0371158, 0.0542351], [0.00687432, 0.00649541, 0.00163863], [0.0194144, -0.0126594, 0.0477517]]]" pbc="F F F"
C        0.02443678      -0.08947939       0.06397364
N        0.01291916      -0.01078555       2.45877420
H        1.29693969       0.30819011      -1.22262273
H        1.62035920       0.30532045       3.63937758
H       -1.68220583       0.05769530       3.37659005
H       -1.70556223       0.54407718      -1.33009349
6
Properties=species:S:1:pos:R:3 energy="_JSON [[-2575.604973661026, -2569.1857380339475, -2568.159149845075]]" forces="_JSON [[[-0.0253229, -0.0125957, 0.0862179], [-0.0107346, -0.008931, -0.0837441], [0.0276644, 0.00553663, 0.109259]], [[0.0483772, 0.00625349, -0.201313], [0.0426582, -0.00347863, -0.0216176], [0.0193673, 0.00110303, -0.133755]], [[-0.0361909, 0.0140656, 0.0408352], [-0.0397847, -0.00730667, 0.0347293], [-0.0257341, 0.00835485, -0.00782054]], [[0.0235919, -0.00393421, 0.019899], [0.0174417, 0.024038, 0.0207318], [0.0298082, -0.00726391, 0.0194006]], [[-0.0535206, 0.00243075, 0.0278677], [-0.0483957, -0.0201604, 0.0308697], [-0.0493468, 0.00660414, 0.0325533]], [[0.0430653, -0.00622, 0.0264936], [0.0388152, 0.0158386, 0.0190309], [-0.0017589, -0.0143347, -0.0196381]]]" pbc="F F F"
C        0.03144708       0.02161902      -0.16799564
N       -0.02598496      -0.02142843       2.65880036
H        1.87841000      -0.26512500      -1.41837866
H        1.63019059       0.28766857       3.46031650
H       -1.57292315      -0.12616934       3.60058650
H       -1.94906110       0.14392546      -1.19648680
6
Properties=species:S:1:pos:R:3 energy="_JSON [[-2574.245161373217, -2568.6158005366597, -2567.725442179991]]" forces="_JSON [[[0.0315734, -0.0276778, 0.0751445], [0.0350007, -0.0202867, -0.0909811], [-0.00306462, 0.00655138, 0.133791]], [[0.0505888, 0.0116343, -0.166931], [0.0520615, 0.00905501, 0.00807404], [0.0617629, -0.00163195, -0.118849]], [[-0.0623249, 0.0218558, 0.0691496], [-0.0649105, 0.0045566, 0.0660616], [-0.0304633, 0.00672809, 0.0146918]], [[-0.0156158, -0.00965752, -0.00767202], [-0.0218285, 0.00788887, -0.00762406], [-0.0181367, -0.00870739, -0.00622905]], [[-0.0207724, 0.00428567, -0.00207493], [-0.0174362, -0.0154172, -0.00193255], [-0.0202895, 0.00878133, -0.00382856]], [[0.0165508, -0.000440476, 0.0323839], [0.017113, 0.0142034, 0.0264021], [0.0101913, -0.0117215, -0.0195758]]]" pbc="F F F"
C        0.00427656       0.04847455      -0.24186699
N       -0.03386678      -0.03480704       2.73710422
H        2.05169602      -0.38417126      -1.74530463
H        1.71870251       0.28957186       3.56632887
H       -1.55455474      -0.07102510       3.86335521
H       -1.79621999       0.07204773      -1.44674811
6
Properties=species:S:1:pos:R:3 energy="_JSON [[-2575.7136467725104, -2568.262788846088, -2567.328316443303]]" forces="_JSON [[[-0.0961106, 0.0105416, 0.118886], [-0.0636082, -0.00849275, -0.0459522], [-0.015129, -0.00148719, 0.0857499]], [[0.213968, 0.00916591, -0.249997], [0.186555, -0.00375165, -0.0674613], [0.158613, 0.00642133, -0.139098]], [[0.0587261, 4.37059e-05, -0.0243805], [0.0557212, -0.0199477, -0.0392116], [0.0593437, 0.013694, -0.0649357]], [[-0.00781586, -0.00958432, 0.026144], [-0.00757534, 0.0278684, 0.0240282], [0.00820568, -0.0186527, 0.0221161]], [[-0.183336, 0.00155073, 0.119393], [-0.176902, -0.0193764, 0.127415], [-0.176498, 0.0122966, 0.127379]], [[0.0145689, -0.0117176, 0.00995469], [0.00580947, 0.0237, 0.00118172], [-0.0345355, -0.012272, -0.0312121]]]" pbc="F F F"
C        0.02902041      -0.01072427      -0.07727254
N       -0.04220604      -0.02224078       2.57827652
H        1.71417265      -0.06576208      -1.00551122
H        1.75546190       0.30222984       3.17782086
H       -1.43711204      -0.04531768       3.43703328
H       -1.79163953       0.24557500      -1.12469884
6
Properties=species:S:1:pos:R:3 energy="_JSON [[-2576.2299258223425, -2569.1976111875792, -2568.167004145866]]" forces="_JSON [[[-0.00077335, 0.00543771, 0.141153], [0.00195872, 0.000698539, -0.0677361], [0.0762244, -0.0071937, 0.166067]], [[0.0487649, -0.0171512, -0.106338], [0.0424497, 0.00153759, 0.109953], [-0.0149412, 0.0122854, -0.0985496]], [[-0.0144372, 0.00351923, 0.010709], [-0.0148573, -0.0115408, 0.00686661], [-0.00214865, 0.00701917, -0.0303891]], [[-0.0163298, 0.00369319, -0.018292], [-0.0193843, 0.0139921, -0.0159695], [0.00634484, -0.0126483, -0.00320385]], [[-0.0124823, 0.00783889, -0.0146661], [-0.00645855, -0.0133681, -0.0164628], [-0.005451, 0.0019313, 0.00768704]], [[-0.0047423, -0.00333778, -0.0125654], [-0.00370826, 0.00868074, -0.0166509], [-0.0600284, -0.00139392, -0.0416117]]]" pbc="F F F"
C        0.02531766      -0.01899237      -0.16401466
N       -0.03389420       0.04012364       2.59740577
H        1.87569347      -0.08298135      -1.16881276
H        1.67260884      -0.09662174       3.59988601
H       -1.52972681      -0.28572814       3.76791175
H       -1.84908610       0.13396422      -0.94730863
6
Properties=species:S:1:pos:R:3 energy="_JSON [[-2572.525629782775, -2569.0087574856498, -2567.1435613236386]]" forces="_JSON [[[0.0719259, 0.0217582, 0.106015], [0.0554349, -0.02464, -0.0212675], [0.0104928, 0.038761, -0.0335607]], [[-0.0945331, 0.0140032, -0.166038], [-0.0836337, -0.015329, -0.0333379], [-0.0431223, -0.010652, -0.0136327]], [[-0.0327133, -0.0128113, 0.0138827], [-0.0318111, 0.00618505, 0.0107802], [-0.00028213, -0.0160231, 0.0346848]], [[0.0020755, 0.00175706, 0.00212242], [-0.00348453, 0.0185517, 0.00323326], [0.00354169, 0.00937778, -0.0101589]], [[0.0555587, -0.0141346, 0.00432919], [0.0607648, 0.00315317, 0.00482473], [0.0357, -0.0071669, -0.0227848]], [[-0.00231373, -0.0105726, 0.0396884], [0.00272966, 0.012079, 0.0357672], [-0.00633013, -0.0142968, 0.0454523]]]" pbc="F F F"
C       -0.11467491      -0.01352125      -0.47813108
N        0.07974956      -0.06913681       2.95199235
H        1.94016312       0.24896180      -1.16123127
H        1.80738039       0.28345107       3.70941109
H       -1.84737972       0.40993838       3.52178006
H       -1.63412454       0.19567204      -1.99523050
6
Properties=species:S:1:pos:R:3 energy="_JSON [[-2576.1635574704596, -2568.260200224849, -2567.580371089229]]" forces="_JSON [[[-0.132861, 0.00680838, 0.154174], [-0.117813, -0.0133755, -0.0637569], [-0.106074, -0.0126229, 0.173165]], [[-0.112961, -0.010936, -0.121228], [-0.11306, 0.0183077, 0.103523], [-0.102014, 0.0177579, -0.100414]], [[0.106066, 0.00374158, -0.0631463], [0.102306, 0.0230553, -0.0693531], [0.128587, 0.000633924, -0.104362]], [[0.0764209, -0.00530156, 0.0416192], [0.0708517, -0.032113, 0.0408354], [0.0775113, -0.00489667, 0.0634173]], [[0.0278766, 0.00674297, -0.0158554], [0.0294086, 0.0185107, -0.0106792], [0.0143329, -0.0152477, 0.000151436]], [[0.035458, -0.00105538, 0.00443701], [0.0283069, -0.0143852, -0.000569511], [-0.0123436, 0.0143753, -0.0319567]]]" pbc="F F F"
C        0.01286319      -0.03312220      -0.09252028
N        0.03150700       0.04763537       2.53595787
H        1.66863210       0.11636661      -0.86648579
H        1.44073030      -0.24587484       3.58485230
H       -1.72972111      -0.14292080       3.47659962
H       -1.97057747       0.00494518      -0.94077382
6
Properties=species:S:1:pos:R:3 energy="_JSON [[-2576.3411075535255, -2568.408568794027, -2567.427767608632]]" forces="_JSON [[[-0.0278326, -0.0187228, 0.0728735], [0.00192123, 0.0251195, 0.0940942], [-0.0173774, 0.0129265, -0.16238]], [[0.0876646, 0.0147953, 0.0154778], [0.0493991, 0.00328987, 0.0402856], [0.0715544, 0.00659282, 0.26176]], [[0.053498, 0.00644578, -0.0168993], [0.0594236, -0.0307059, -0.0567886], [0.0528838, 0.00229843, -0.0276815]], [[-0.0748988, -0.011552, -0.0460391], [-0.0578116, 0.00958479, -0.0297137], [-0.0725189, -0.018436, -0.0427338]], [[-0.00327148, 0.00482221, -0.017893], [0.00211992, -0.0129999, 0.00451977], [0.000450873, 0.00799276, -0.0159307]], [[-0.0351598, 0.00421158, -0.00751994], [-0.0550522, 0.00571159, -0.0523973], [-0.0349928, -0.0113745, -0.0130346]]]" pbc="F F F"
C        0.00950663       0.04596271      -0.01719192
N       -0.03827605      -0.01934999       2.47752959
H        1.66044799      -0.26781078      -0.99783350
H        1.91570912       0.16538418       3.58796126
H       -1.53319107      -0.09104691       3.71962312
H       -1.62432895      -0.08493817      -1.14066332
6